# vtk DataFile Version 2.0
Grain example
ASCII
DATASET UNSTRUCTURED_GRID
POINTS 33300 float
8.5130779 -9.3628103 3.1053183
8.5123984 -9.3228061 3.6651199
8.5112316 -9.2719443 4.2221867
8.5165998 -9.229731 4.7517156
8.5228399 -9.1849913 5.2775459
8.527452 -9.1457887 5.8398036
8.5317349 -9.1044893 6.4128796
8.5208276 -9.0765056 7.0171333
8.4936908 -9.0600938 7.5648607
8.4524056 -9.0478053 8.115693
8.3768189 -9.0542502 8.6875351
8.2833607 -9.0816733 9.2381809
8.1802758 -9.1112684 9.7970249
8.06808 -9.1461513 10.368996
7.9543235 -9.1803708 10.939583
7.8408346 -9.2055399 11.489204
7.6852346 -9.1980859 12.105957
7.502795 -9.1917485 12.732383
7.2723334 -9.1852681 13.347533
7.0224898 -9.199594 13.947939
6.7504335 -9.2325796 14.515508
6.43547 -9.271189 14.961776
6.1278671 -9.2960862 15.35326
5.7774798 -9.3061523 15.719074
5.4896649 -9.3218296 15.966659
5.1908614 -9.341056 16.210125
4.8803868 -9.3480367 16.453205
4.562856 -9.333143 16.682102
4.2087669 -9.3113177 16.934276
3.8069455 -9.2981673 17.188844
8.9998853 -8.8418711 3.2189454
8.9985705 -8.8018129 3.7926478
8.9979408 -8.758207 4.3469047
8.9965101 -8.7176656 4.891577
9.000064 -8.6799689 5.4417854
9.0024445 -8.6349624 6.0087035
9.0083997 -8.5880719 6.5876663
9.005426 -8.5455682 7.1854726
8.9806905 -8.5199619 7.7619537
8.920067 -8.5153484 8.3413704
8.8430039 -8.5226143 8.9141394
8.7650034 -8.5241562 9.4849249
8.674223 -8.5323612 10.04892
8.5782397 -8.547987 10.637298
8.4744776 -8.5636732 11.231041
8.3577017 -8.5699102 11.835468
8.2039606 -8.5757796 12.487337
7.9749988 -8.5848967 13.133963
7.734152 -8.6112717 13.747967
7.4780446 -8.6311555 14.348443
7.18701 -8.6764281 14.888212
6.8669731 -8.7434669 15.423098
6.5258163 -8.776729 15.855088
6.1218435 -8.7894628 16.290395
5.7874529 -8.8098493 16.598105
5.4649412 -8.8160194 16.858357
5.0927932 -8.8154914 17.139234
4.7139259 -8.8138614 17.37801
4.3483653 -8.806301 17.610698
3.905958 -8.806077 17.872338
9.4816519 -8.339507 3.3176869
9.4858663 -8.2917299 3.9090113
9.4832626 -8.2438794 4.4703927
9.484607 -8.204518 5.017525
9.4820337 -8.1646491 5.5912297
9.4811901 -8.1194297 6.1853349
9.4829125 -8.070231 6.7738919
9.4899888 -8.0101959 7.3893476
9.4479782 -7.9950982 7.9851312
9.3830145 -7.9915362 8.5651718
9.3070946 -7.9939633 9.1378027
9.2196092 -8.00357 9.7047187
9.1291667 -8.0128962 10.263458
9.027516 -8.0236846 10.850131
8.9091537 -8.0321445 11.457623
8.7874005 -8.0318813 12.072067
8.6068461 -8.0442024 12.734783
8.3751544 -8.0652349 13.377973
8.1386734 -8.0828176 13.993545
7.8706213 -8.1104245 14.599655
7.5964645 -8.1541098 15.183247
7.2823009 -8.2153506 15.759992
6.9247496 -8.2716834 16.305048
6.5022358 -8.3018682 16.77361
6.083171 -8.2963192 17.194893
5.7174075 -8.3043019 17.490373
5.2859605 -8.3048269 17.783951
4.8870259 -8.312048 18.031764
4.4663041 -8.3137049 18.288936
4.0130544 -8.3092027 18.557374
9.8731445 -7.9347889 3.3626334
9.9079578 -7.8583799 3.9733396
9.9436577 -7.7764716 4.5616353
9.9671335 -7.706533 5.1514564
9.9631016 -7.6655364 5.7372143
9.9617177 -7.6190006 6.3291647
9.9659919 -7.5613591 6.968863
9.9507643 -7.5145111 7.6136613
9.9077856 -7.4857078 8.1951387
9.8428755 -7.4804662 8.779665
9.7624447 -7.4824236 9.3505326
9.6734225 -7.4899274 9.9138499
9.5716756 -7.4934302 10.489259
9.4611308 -7.4917044 11.075771
9.3337259 -7.4943621 11.686357
9.17717 -7.4962104 12.288984
8.9841169 -7.5250585 12.910742
8.7508224 -7.561854 13.563757
8.4943982 -7.6033737 14.176347
8.2221143 -7.6386173 14.78267
7.9471288 -7.683163 15.363866
7.626311 -7.7349615 15.977496
7.2678471 -7.7970988 16.580749
6.8348035 -7.8407131 17.184176
6.3951844 -7.8371961 17.656847
5.9169648 -7.8166523 18.096127
5.4898093 -7.7919698 18.413614
5.0722609 -7.8038059 18.678393
4.6028444 -7.8104201 18.958497
4.1048301 -7.7885189 19.252483
10.262894 -7.5357227 3.4017708
10.297766 -7.4568848 4.0228718
10.333136 -7.3761493 4.6129007
10.367943 -7.2887617 5.2349234
10.404852 -7.2031287 5.8601386
10.445408 -7.1119835 6.5130092
10.440461 -7.056902 7.1757289
10.413898 -7.0096873 7.8244154
10.365676 -6.981298 8.4123904
10.300786 -6.967842 8.9913119
10.213099 -6.9703352 9.5613351
10.108232 -6.9700834 10.137298
9.9999048 -6.9649547 10.719068
9.8749106 -6.9609593 11.291686
9.7202634 -6.9588019 11.881507
9.5484738 -6.9740208 12.472999
9.347149 -7.0114491 13.091963
9.1073716 -7.0600495 13.719311
8.8425025 -7.1148924 14.343453
8.571391 -7.1670802 14.962058
8.2880574 -7.2078026 15.553096
7.9576554 -7.2601069 16.168832
7.579118 -7.3216556 16.777154
7.1328677 -7.3630831 17.414786
6.6795046 -7.4087039 18.0025
6.1420261 -7.4054973 18.533485
5.6292997 -7.363297 18.951718
5.1915757 -7.3213465 19.260439
4.6727806 -7.2757254 19.590091
4.1572181 -7.2247745 19.914911
10.650916 -7.1327982 3.4345572
10.684682 -7.0584697 4.0623603
10.719437 -6.978551 4.6676372
10.756986 -6.8858355 5.3103293
10.792004 -6.7943985 5.9544115
10.83469 -6.6957721 6.6456822
10.85261 -6.6072572 7.3468538
10.864995 -6.5160806 8.0285144
10.824188 -6.4770437 8.6229603
10.753772 -6.4567819 9.183043
10.646398 -6.4430751 9.7800566
10.533583 -6.4416161 10.352327
10.404036 -6.4364083 10.922025
10.257549 -6.4271086 11.495641
10.105067 -6.422504 12.07512
9.9157846 -6.4530302 12.657945
9.7010022 -6.5029008 13.261217
9.4549695 -6.5626601 13.872554
9.1915151 -6.6103526 14.500117
8.9152581 -6.67437 15.128726
8.6090637 -6.7367729 15.74089
8.2641796 -6.8031382 16.341431
7.8686553 -6.8553685 16.954424
7.4245005 -6.8897995 17.604703
6.9521548 -6.9173231 18.265211
6.3633188 -6.9027465 18.90503
5.7792745 -6.8531414 19.447972
5.2490283 -6.7924907 19.865715
4.7216725 -6.7462176 20.200558
4.1904656 -6.7048293 20.523068
11.041172 -6.7356777 3.462683
11.074478 -6.6584734 4.1000732
11.108377 -6.5730444 4.7390385
11.141301 -6.4816235 5.3826629
11.181849 -6.3812713 6.0707787
11.199905 -6.2901159 6.7749726
11.219761 -6.194373 7.4866308
11.228661 -6.1080624 8.1608678
11.216978 -6.0325299 8.7834174
11.163483 -5.9554219 9.3939103
11.072198 -5.9150889 9.9676713
10.93615 -5.9104843 10.54387
10.786185 -5.9055011 11.123345
10.640097 -5.8946696 11.701752
10.474623 -5.9034472 12.256501
10.273301 -5.9411858 12.837088
10.040313 -5.9980723 13.429333
9.7997032 -6.0555564 14.034876
9.5334467 -6.1098094 14.657786
9.2357593 -6.1847965 15.273664
8.912528 -6.265227 15.886762
8.5601224 -6.3445663 16.509122
8.1496726 -6.3763561 17.136591
7.692065 -6.3876045 17.790391
7.1693287 -6.3746281 18.499776
6.5602053 -6.3416739 19.236161
5.9645587 -6.297409 19.855979
5.3317524 -6.2353024 20.411898
4.7680159 -6.2045972 20.806984
4.2360647 -6.172935 21.131966
11.433455 -6.3273211 3.4880676
11.46448 -6.2479146 4.135664
11.496542 -6.1628624 4.8030473
11.534644 -6.0634274 5.4778846
11.549538 -5.9675575 6.2023347
11.56778 -5.8755752 6.9052954
11.585999 -5.7809023 7.6182274
11.59037 -5.6912793 8.2933763
11.557513 -5.6052673 8.9302052
11.498545 -5.5343849 9.5207846
11.410798 -5.4594053 10.105483
11.299445 -5.4045215 10.70869
11.176982 -5.3645087 11.311093
11.020637 -5.361883 11.892736
10.837129 -5.3825675 12.45111
10.613318 -5.432783 13.006915
10.376909 -5.4884493 13.600023
10.128358 -5.5566101 14.191952
9.8579094 -5.624856 14.789569
9.538042 -5.7020988 15.416184
9.2001881 -5.7719255 16.030748
8.8350961 -5.8326867 16.668326
8.4074362 -5.8614965 17.325209
7.9120188 -5.8422685 18.015781
7.3666419 -5.8168421 18.742691
6.7576338 -5.7726351 19.494635
6.1541154 -5.7308223 20.200758
5.4700207 -5.6775806 20.854805
4.7968721 -5.6016507 21.370392
4.2574313 -5.5601282 21.697863
11.824454 -5.8992921 3.5110626
11.853942 -5.8143776 4.163935
11.885812 -5.7318506 4.8634292
11.901089 -5.6363976 5.5815444
11.915509 -5.5396008 6.3044544
11.934378 -5.4444809 7.0168461
11.949051 -5.3469591 7.7316328
11.931514 -5.2495373 8.4179625
11.892051 -5.1669513 9.0444271
11.812283 -5.0869798 9.6373885
11.713649 -5.0064997 10.225224
11.610887 -4.9406906 10.813551
11.495645 -4.8895861 11.421694
11.354577 -4.8560393 12.022725
11.177169 -4.8587255 12.593587
10.944744 -4.9192944 13.156321
10.693956 -4.9935309 13.742981
10.443628 -5.0626201 14.339467
10.162717 -5.1260444 14.932534
9.8192758 -5.1970982 15.558302
9.4684563 -5.2545991 16.179122
9.0803173 -5.276735 16.835686
8.6408379 -5.288331 17.507194
8.1232751 -5.2870288 18.250381
7.5657719 -5.2583722 18.980774
6.9478003 -5.2105354 19.74139
6.2983488 -5.1437111 20.490188
5.5890703 -5.0699019 21.219735
4.889933 -4.9989427 21.825318
4.2690618 -4.9437868 22.254302
12.214374 -5.4686305 3.5297459
12.244741 -5.3850314 4.19898
12.255077 -5.3004795 4.9539729
12.267678 -5.2062772 5.6875321
12.282497 -5.1079483 6.4152346
12.297341 -5.0115863 7.1318491
12.294422 -4.9025231 7.8671637
12.270891 -4.8046168 8.5443025
12.207435 -4.7162793 9.1634333
12.116511 -4.6325944 9.7622275
12.018575 -4.5564141 10.34626
11.915341 -4.482852 10.926049
11.795297 -4.4286004 11.521166
11.621327 -4.4226968 12.097227
11.423193 -4.4387176 12.652101
11.220574 -4.4606543 13.229201
10.998024 -4.4747455 13.842593
10.746138 -4.5261642 14.471503
10.447874 -4.6056608 15.067714
10.084236 -4.6634676 15.707249
9.7065713 -4.6866749 16.352425
9.3145757 -4.7009505 17.014078
8.8618464 -4.7102251 17.703043
8.3293254 -4.7080175 18.459245
7.7465336 -4.670365 19.215416
7.1164091 -4.6112913 19.973556
6.4267138 -4.5464818 20.753288
5.7085107 -4.4789814 21.511709
4.9922551 -4.3942535 22.212206
4.3137999 -4.3310263 22.753238
12.60553 -5.0336406 3.5561645
12.617889 -4.9538987 4.2695925
12.622867 -4.8699282 5.045443
12.636 -4.7768946 5.7950575
12.649737 -4.6773808 6.5206818
12.643722 -4.5640663 7.2699197
12.637245 -4.4549391 8.0043158
12.587944 -4.3542929 8.6642301
12.510345 -4.2612436 9.286965
12.418443 -4.1834454 9.880488
12.318288 -4.1005614 10.467795
12.214402 -4.0244396 11.054081
12.060471 -3.9972044 11.594776
11.866784 -4.009113 12.151393
11.659542 -4.0127648 12.709813
11.450298 -4.0197569 13.292355
11.232692 -4.0287245 13.88838
10.978541 -4.0464696 14.528392
10.673498 -4.0603862 15.179041
10.323976 -4.0701474 15.858629
9.9390537 -4.0922405 16.515759
9.5418397 -4.1100246 17.186039
9.0556182 -4.1074366 17.901095
[...]
POINT_DATA 33300
VECTORS normals float
0.70458141 -0.70944728 0.015798608
0.70599936 -0.70787914 0.021726068
0.70719369 -0.70647003 0.027878027
0.70723164 -0.70607374 0.035822918
0.71242439 -0.70043865 0.042862382
0.71540145 -0.69670401 0.052955512
0.71349977 -0.69786317 0.062490587
0.71323203 -0.69731906 0.071036668
0.71229047 -0.69772206 0.076329662
0.71217731 -0.69731082 0.081000658
0.70648501 -0.70221866 0.0881356
0.70216534 -0.70548912 0.096171435
0.69754408 -0.70837727 0.10786059
0.69428347 -0.70875779 0.12503146
0.6889226 -0.71071881 0.14235319
0.68604466 -0.70928787 0.16202917
0.6760254 -0.71306208 0.18582822
0.66562941 -0.71545557 0.21227535
0.65553861 -0.71598825 0.24006239
0.63386693 -0.7258077 0.26723752
0.59654981 -0.74124679 0.30770362
0.55910765 -0.75241243 0.34824441
0.50429426 -0.77262445 0.38566664
0.46391615 -0.78007983 0.41983005
0.42845942 -0.79070872 0.43726679
0.4002762 -0.79369685 0.45806579
0.35492596 -0.80051789 0.48290649
0.31835128 -0.80730407 0.496903
0.26833903 -0.8129294 0.51685584
0.22335087 -0.81412819 0.53601276
0.70982578 -0.70410414 0.019614174
0.71016256 -0.70358995 0.025106092
0.71126016 -0.70220719 0.031844043
0.71211683 -0.70073612 0.043110535
0.71497903 -0.69731964 0.050500631
0.71967421 -0.69191215 0.057676699
0.72124631 -0.68971751 0.063980543
0.72052512 -0.68987372 0.070127009
0.72032438 -0.68925691 0.077831201
0.71899545 -0.69003267 0.083069047
0.7183821 -0.68958023 0.091685755
0.71771106 -0.68902878 0.1006488
0.71689406 -0.68777309 0.11415375
0.71583079 -0.6853185 0.1338837
0.71304716 -0.68336256 0.15677803
0.70969319 -0.68027723 0.18318971
0.70488049 -0.67973977 0.2027248
0.69649357 -0.6801867 0.22856675
0.68969112 -0.68111018 0.2457948
0.66750255 -0.69050742 0.27863928
0.64013302 -0.70315681 0.30951611
0.59329433 -0.72293977 0.35406204
0.54338099 -0.74121201 0.39413431
0.47774508 -0.76496939 0.43195077
0.44088505 -0.77474812 0.45319502
0.3998436 -0.78433392 0.47428408
0.3655286 -0.78520709 0.49983865
0.32682565 -0.7914018 0.51659287
0.27518806 -0.79811053 0.53599544
0.21334234 -0.80444506 0.55439443
0.7113205 -0.70250712 0.022514308
0.71055035 -0.70311039 0.027458486
0.71481759 -0.69824564 0.038585492
0.71707106 -0.69534154 0.048054523
0.7201808 -0.69140606 0.057421875
0.72198713 -0.68886142 0.064842318
0.72408152 -0.68633045 0.068238257
0.72338059 -0.68662744 0.0725485
0.72379637 -0.68541894 0.079496491
0.72437452 -0.68362553 0.08909372
0.72479542 -0.68209707 0.097031879
0.72808672 -0.67626103 0.11207475
0.73156019 -0.66967402 0.12789214
0.73231394 -0.66528469 0.14530164
0.73474481 -0.65711525 0.16837343
0.73147621 -0.65513953 0.1890364
0.72586003 -0.653619 0.21426484
0.71649819 -0.65703378 0.23438636
0.70631645 -0.66049669 0.25467861
0.69740936 -0.65773054 0.28462383
0.67743009 -0.66608654 0.31211727
0.64343685 -0.68240101 0.34686869
0.59262358 -0.70403003 0.3913298
0.5209204 -0.73253403 0.43821892
0.46792244 -0.74963783 0.46807234
0.40727795 -0.7650621 0.49880321
0.36801864 -0.77204718 0.5181751
0.33127779 -0.77572489 0.53712747
0.26926236 -0.78319496 0.56044932
0.22340891 -0.78739017 0.5745478
0.71559214 -0.69808243 0.024674122
0.7150761 -0.69835922 0.030993127
0.717464 -0.69519713 0.04411754
0.72236455 -0.68917232 0.056841545
0.72588075 -0.68490667 0.063245489
0.72669497 -0.68366725 0.067182711
0.72433688 -0.68596774 0.069168954
0.72331134 -0.68661942 0.073310814
0.72354434 -0.68514654 0.084010715
0.72743416 -0.67935653 0.096510369
0.72958823 -0.67456652 0.11252119
0.73521252 -0.66622589 0.12492245
0.74279118 -0.6532629 0.14665897
0.74614857 -0.64513453 0.16451062
0.74851729 -0.63737668 0.18295584
0.74819009 -0.63147985 0.20357993
0.74401363 -0.63006991 0.22238622
0.73497027 -0.6318072 0.24624856
0.72357678 -0.63634939 0.26738753
0.71285313 -0.63619302 0.29512514
0.7013686 -0.63835086 0.31715969
0.67581324 -0.64828236 0.35072275
0.63325407 -0.67103006 0.38562669
0.56634436 -0.69739462 0.43919791
0.51129769 -0.71830342 0.4718208
0.4440441 -0.73410983 0.51371937
0.37534968 -0.75185877 0.54205259
0.34220741 -0.75566444 0.55844906
0.28978473 -0.76442223 0.57591967
0.23603889 -0.77197148 0.59020816
0.72013568 -0.69333911 0.02618148
0.7215965 -0.69140533 0.035456413
0.72625264 -0.68555698 0.050682647
0.72553897 -0.6854575 0.061165538
0.72885797 -0.68145441 0.066226566
0.72666832 -0.68376631 0.066458975
0.7274984 -0.68232931 0.071922159
0.72546691 -0.68348065 0.080944234
0.72790681 -0.67876213 0.097126964
0.73192345 -0.67222747 0.11134758
0.73628609 -0.66415221 0.12955552
0.74313767 -0.65270754 0.14737459
0.75145659 -0.63794458 0.16834398
0.75431162 -0.63088601 0.18165027
0.75842501 -0.62195964 0.1948274
0.75979081 -0.61486796 0.21131804
0.75509411 -0.61446465 0.22861775
0.74839877 -0.61297234 0.25330652
0.73864273 -0.61556814 0.2747413
0.72595153 -0.6186462 0.30045176
0.71727653 -0.61642224 0.32486612
0.69473387 -0.6227084 0.35997097
0.6717012 -0.62584673 0.39640052
0.61656214 -0.64927917 0.44529506
0.5502495 -0.67600306 0.49014829
0.48463283 -0.69324222 0.53342876
0.40431578 -0.721303 0.56236175
0.34839739 -0.73358661 0.58349803
0.29865646 -0.74382888 0.5979322
0.23274361 -0.75010269 0.61901242
0.72571374 -0.6875253 0.025466069
0.72755026 -0.68490371 0.039717989
0.7296346 -0.6818912 0.051553361
0.72849006 -0.68224576 0.061991572
0.72822738 -0.68216409 0.065856219
0.72935967 -0.68064956 0.068924902
0.73170345 -0.67730043 0.076643235
0.73822063 -0.66812517 0.09294649
0.73902556 -0.6639022 0.11434639
0.74222635 -0.65714158 0.13139634
0.74703252 -0.64723941 0.15173515
0.75269231 -0.63677262 0.16725703
0.75802311 -0.6256995 0.18412253
0.76116299 -0.61787723 0.19712592
0.76462478 -0.60939254 0.20973716
0.76653513 -0.60310509 0.22065392
0.76291007 -0.60266112 0.2340252
0.75908966 -0.59863478 0.25577195
0.75100772 -0.59661268 0.28291468
0.74112543 -0.5942011 0.31250306
0.73239381 -0.59135794 0.33748347
0.71374318 -0.59573598 0.36833316
0.69274549 -0.60058407 0.39925238
0.65306514 -0.60312723 0.45797758
0.60473738 -0.61608744 0.50470682
0.52798246 -0.64340547 0.55431392
0.43870263 -0.6763091 0.59173136
0.36976059 -0.69646437 0.61499146
0.31539975 -0.70830016 0.63153296
0.25290236 -0.7220739 0.64393297
0.73014424 -0.68283973 0.024885812
0.73172927 -0.68044937 0.039508562
0.73189687 -0.67942157 0.052089404
0.73176793 -0.67854316 0.063991247
0.73254575 -0.67764118 0.064646425
0.73863063 -0.67034268 0.071172242
0.74283016 -0.66397883 0.085647347
0.74758149 -0.65580538 0.1050772
0.75256032 -0.64583488 0.12864788
0.75726464 -0.63492463 0.15303915
0.76071774 -0.62671139 0.16894183
0.76300772 -0.61942558 0.18474624
0.76569961 -0.61229947 0.19696058
0.76700082 -0.6062254 0.21023914
0.77044043 -0.59699919 0.22363701
0.77096536 -0.59318792 0.23182
0.76869685 -0.59137075 0.24369202
0.7670089 -0.58402795 0.26572299
0.75988975 -0.57994489 0.29365199
0.75397639 -0.57204901 0.3229234
0.74298199 -0.56588396 0.35742567
0.73147735 -0.5651394 0.38152108
0.71036969 -0.5605032 0.42568894
0.68727094 -0.5495266 0.47505701
0.6436213 -0.55587641 0.52607323
0.5795924 -0.57560775 0.57684344
0.51860747 -0.60030126 0.6088388
0.42431775 -0.64210705 0.63847709
0.32965375 -0.68087892 0.65401246
0.25811268 -0.69980763 0.66606841
0.7290505 -0.68389764 0.027737902
0.7341282 -0.67773143 0.041664054
0.73517306 -0.67552838 0.056408993
0.73745582 -0.6722092 0.065526398
0.73957021 -0.66965425 0.067816622
0.74647398 -0.66097128 0.076769575
0.75430488 -0.64966745 0.09463806
0.75841116 -0.64063329 0.12000625
0.76361938 -0.62946496 0.14373342
0.76671178 -0.6210697 0.16255915
0.76934055 -0.6132446 0.17901445
0.77306876 -0.60386611 0.19419169
0.77382975 -0.59765429 0.20975428
0.77503014 -0.59079005 0.22426637
0.7772838 -0.58250384 0.23773761
0.77752643 -0.57987729 0.2433002
0.7760557 -0.57789376 0.25253979
0.77320635 -0.57036532 0.27719188
0.76906955 -0.564655 0.29949416
0.76301465 -0.54831437 0.34228642
0.75805453 -0.53511874 0.37282873
0.74310644 -0.52867487 0.41023858
0.72390177 -0.51526963 0.45876295
0.7049385 -0.49595453 0.50704124
0.67351875 -0.49623918 0.54783133
0.62447922 -0.511014 0.59066945
0.56662879 -0.53598423 0.62582164
0.4771091 -0.57830884 0.66175962
0.37932881 -0.63396516 0.673942
0.28634048 -0.6731065 0.68186272
0.73229079 -0.68017937 0.033260032
0.73811722 -0.67288421 0.049089747
0.73999907 -0.66994797 0.059758625
0.7434061 -0.6655383 0.066378835
0.7455768 -0.66239991 0.073086247
0.75309569 -0.65223397 0.08624229
0.76022124 -0.64074164 0.10730252
0.76793008 -0.62617907 0.13484497
0.77304957 -0.6144013 0.15781443
0.77705345 -0.60542269 0.17219554
0.77848512 -0.5993399 0.18642051
0.78069578 -0.59034857 0.20494553
0.7815566 -0.58325751 0.22131416
0.78532972 -0.57050409 0.24037953
0.78769705 -0.561184 0.25417685
0.78751687 -0.55847126 0.26062814
0.78923016 -0.5491173 0.27492897
0.78740031 -0.54040071 0.29659372
0.78316603 -0.52865051 0.32738296
0.77927825 -0.51286219 0.36013579
0.77264705 -0.49368762 0.39911036
0.75823349 -0.47736436 0.44407796
0.74221087 -0.45898384 0.48832045
0.72653593 -0.43655505 0.5306272
0.6982239 -0.43440454 0.56901325
0.65848342 -0.44721975 0.60530495
0.61296699 -0.46928715 0.63564222
0.54346496 -0.51860238 0.66007379
0.44799268 -0.57187859 0.68720989
0.35955182 -0.62084422 0.69661678
0.73907282 -0.67238464 0.040868791
0.74434823 -0.66549062 0.055389082
0.74735563 -0.6614426 0.062874916
0.74945629 -0.65838596 0.069593065
0.75293711 -0.65323678 0.079796081
0.76147463 -0.64085964 0.097238433
0.77006441 -0.62609908 0.12247757
0.77671031 -0.61198856 0.14896674
0.78050894 -0.60208296 0.16823166
0.78469422 -0.59200209 0.18381649
0.78710001 -0.5850146 0.19552875
0.78984422 -0.57421568 0.21545874
0.79275933 -0.56273551 0.2342251
0.79647593 -0.54885091 0.25374942
0.79977092 -0.53505046 0.27219017
0.80521508 -0.52084666 0.28345624
0.80865439 -0.50352642 0.30420259
0.8070799 -0.4911949 0.3276425
0.80489386 -0.46984053 0.36248552
0.79770127 -0.44692738 0.40488097
0.79134598 -0.43114379 0.43345886
0.77807666 -0.40738013 0.47816121
0.75928303 -0.39875034 0.51428343
0.73759998 -0.388987 0.55193784
0.71576136 -0.38583753 0.58207823
0.69008121 -0.38688858 0.61164136
0.65481667 -0.40451794 0.63842021
0.60277471 -0.43574797 0.6684208
0.52328631 -0.47699816 0.70614743
0.43700623 -0.54151218 0.7181853
0.74614258 -0.66430614 0.044368901
0.75026004 -0.65839072 0.060262189
0.75295339 -0.65458922 0.06763246
0.7571409 -0.64877341 0.076359131
0.76250208 -0.6409215 0.088375376
0.76885976 -0.62956585 0.11181017
0.77962493 -0.60999169 0.14175724
0.78371632 -0.59972014 0.16163072
0.78899714 -0.58759314 0.17949319
0.78954209 -0.58272125 0.19250774
0.79233847 -0.57184369 0.21259005
0.79728672 -0.55529949 0.23659327
0.80265746 -0.53790275 0.25768513
0.80494843 -0.52401465 0.27832834
0.81288953 -0.5045426 0.29094222
0.82057869 -0.47807841 0.31319586
0.82618702 -0.45091883 0.33776799
0.82475984 -0.43491567 0.36141329
0.82277098 -0.40292296 0.4008753
0.81367903 -0.38491467 0.4356227
0.79977171 -0.37279227 0.4705222
0.78787576 -0.35721311 0.50164787
0.76884492 -0.34685643 0.53718536
0.74513316 -0.34398782 0.57135712
0.72375241 -0.34228906 0.59918331
0.70668661 -0.33849376 0.62130187
0.68168778 -0.34790032 0.64363588
0.63804642 -0.37923134 0.67013458
0.58066917 -0.41939337 0.6978055
0.48868121 -0.47501687 0.73181258
0.7528861 -0.65629552 0.049383302
0.7556879 -0.65180578 0.063914226
0.75930594 -0.64670353 0.072312032
0.76607397 -0.63715927 0.084609369
0.77243251 -0.62721521 0.099745114
0.77914842 -0.61300786 0.13095458
0.78495255 -0.59949525 0.15638078
0.7929661 -0.58306589 0.17674539
0.79737676 -0.57276685 0.19007482
0.79859232 -0.5666958 0.20274658
0.80439634 -0.54855344 0.22811323
0.80940685 -0.52780251 0.25745885
0.81372001 -0.50885392 0.28094026
0.82027634 -0.48828104 0.29787305
0.82594063 -0.46261699 0.32219186
0.83261094 -0.43796674 0.33903416
0.83640039 -0.41085364 0.36281355
0.84025543 -0.3712868 0.39511634
0.83509065 -0.34814047 0.42593641
0.82595119 -0.33210128 0.45553636
0.81227093 -0.31946041 0.48801741
0.79763019 -0.31041084 0.5171375
0.78123265 -0.30907105 0.54235656
0.75584557 -0.3093888 0.57704076
0.73431095 -0.30654228 0.60565606
0.71733131 -0.30600282 0.62593775
0.69722751 -0.30975587 0.64647127
0.67116992 -0.31576675 0.67068792
0.61150363 -0.35468052 0.70729417
0.54930714 -0.39603943 0.73580869
0.7584793 -0.64923559 0.05658892
0.76416047 -0.64134502 0.068813813
0.76768569 -0.63597028 0.078743195
0.77514351 -0.62460042 0.095009782
0.78222475 -0.61188546 0.11713505
0.78839249 -0.59683404 0.14908527
0.79488703 -0.58106856 0.17468238
0.8038951 -0.56408876 0.18856443
0.80813491 -0.55430049 0.1991706
0.81460502 -0.53599361 0.22165177
0.8219065 -0.51129792 0.25108593
0.82716829 -0.48516866 0.28355598
0.83206011 -0.46166394 0.30747745
0.83630108 -0.43821695 0.32949418
0.83877309 -0.41545704 0.35193061
0.84143387 -0.39610903 0.3675414
0.8418054 -0.36956215 0.3934304
0.84445254 -0.33367678 0.41899847
0.84050779 -0.3117033 0.44315653
0.83474706 -0.28788126 0.46938442
0.82146267 -0.2762744 0.49887026
0.80821418 -0.2734169 0.52156786
0.78635379 -0.27171251 0.55481531
0.76619547 -0.26769245 0.58419625
0.74581151 -0.26332876 0.61190126
0.7275794 -0.2647465 0.63288033
0.71242594 -0.266945 0.64899125
0.68511671 -0.27563141 0.67427177
0.64040003 -0.29298256 0.7099641
0.57798771 -0.33083523 0.7459747
0.76787041 -0.63743288 0.063673786
0.77442112 -0.62804476 0.076365632
0.7798685 -0.61963375 0.088651838
0.78678861 -0.60806779 0.10591152
0.79410117 -0.59372508 0.1299764
0.80325023 -0.57247645 0.16449857
0.80856237 -0.55840037 0.18551529
0.81422415 -0.54450232 0.20138583
0.82294405 -0.52436243 0.21864843
0.83330066 -0.49231217 0.25147314
0.8387639 -0.46647965 0.28084135
0.84524361 -0.43510165 0.31024151
0.84486291 -0.41699353 0.33514633
0.84662878 -0.3978281 0.35348623
0.85060514 -0.37229623 0.37130368
0.84741741 -0.35568042 0.39417657
0.84520967 -0.32800943 0.42193652
0.84601309 -0.30062853 0.44032298
0.84181842 -0.27641288 0.46361371
0.83794993 -0.25250737 0.48381809
0.83101581 -0.24101399 0.50132323
0.81574597 -0.23994796 0.52629222
0.79728885 -0.23256556 0.55699529
0.77320551 -0.23121297 0.59050301
0.75801755 -0.21728967 0.61497527
0.73582352 -0.21063635 0.64358067
0.72035542 -0.21138157 0.66061025
0.69823248 -0.21091193 0.68409617
0.66652672 -0.22615875 0.71034805
0.60675967 -0.24476863 0.75626121
0.77761182 -0.62485309 0.069846062
0.7852764 -0.61362446 0.082498454
0.79216459 -0.60249197 0.097358602
0.79912579 -0.58943538 0.11816895
0.80381909 -0.57547056 0.15069344
0.81571461 -0.54924134 0.18150377
0.82286273 -0.53175111 0.20034392
0.83209761 -0.50996295 0.21806273
0.84470817 -0.47639136 0.24396593
0.8493506 -0.44650938 0.28148346
0.85368711 -0.41939404 0.30875064
0.85563015 -0.39281614 0.33703489
0.85435785 -0.37503323 0.35975373
0.85439291 -0.35723283 0.37735589
0.8538637 -0.33877776 0.39515366
0.85101838 -0.31001482 0.42386145
0.84954826 -0.27799471 0.4483154
0.84905167 -0.25251513 0.46405535
0.84878656 -0.2284389 0.47684069
0.8435523 -0.21864351 0.49052475
0.83533347 -0.21366941 0.50652086
0.82175565 -0.2064036 0.53114518
0.80451997 -0.19786475 0.55999746
0.78452183 -0.18779735 0.59098025
0.76193664 -0.16894987 0.62522676
0.74193969 -0.14971913 0.65353628
0.72748695 -0.14053962 0.67157379
0.70892009 -0.14232899 0.69077837
0.68067389 -0.14812654 0.71745494
0.62231885 -0.17450574 0.76306422
0.78616392 -0.61283042 0.079907299
0.79547558 -0.59904935 0.091424661
0.80273597 -0.58749385 0.10230318
0.81061407 -0.57131519 0.12846705
0.82047513 -0.54603909 0.1692982
0.82690235 -0.52494944 0.20164469
0.84042093 -0.49418122 0.22243557
0.85189097 -0.46264683 0.24543775
0.85613765 -0.43868265 0.27310412
0.85854478 -0.41226793 0.30485408
0.86053565 -0.38752146 0.33061384
0.86174106 -0.36240744 0.35505378
0.8601293 -0.34226614 0.37819503
0.85850225 -0.32282363 0.39844547
0.85858676 -0.2870045 0.42480254
0.85837303 -0.2562621 0.44443839
0.85235013 -0.22530053 0.47195224
0.85183885 -0.20734672 0.48101757
0.84937441 -0.19115689 0.49195747
0.84720976 -0.17510956 0.50156979
0.84197816 -0.1737113 0.51078093
0.82699783 -0.16666413 0.53693358
0.80863646 -0.15128613 0.56852403
0.78588077 -0.13291223 0.60392529
0.76535897 -0.11446359 0.63334329
0.74716359 -0.099031949 0.65722085
0.72931621 -0.088523277 0.67842575
0.71235978 -0.08557158 0.69657809
0.69264457 -0.080637176 0.71675738
0.63643471 -0.091813675 0.76584666
0.79694747 -0.59713715 0.091114997
0.80667596 -0.58227814 0.10112404
0.81400953 -0.56903676 0.11655745
0.82461539 -0.54625047 0.14703703
0.8354903 -0.51509592 0.19139527
0.84462693 -0.48685357 0.2226633
0.85140134 -0.46466046 0.24332369
0.86072798 -0.43167255 0.26982615
0.86440781 -0.4024455 0.30139136
0.86764962 -0.3729138 0.32881518
0.86882098 -0.34890503 0.35130525
0.86830684 -0.32821448 0.37191194
0.86643491 -0.2921318 0.40490685
0.8625502 -0.26496366 0.43104687
0.86050853 -0.23060189 0.45425525
0.85378919 -0.20864128 0.47698306
0.85281694 -0.1889868 0.48681338
0.85222213 -0.17441804 0.49325022
0.85163399 -0.15836233 0.49964079
0.84872701 -0.14497058 0.50857251
0.84615303 -0.12837213 0.51724814
0.83212615 -0.11890814 0.54168896
0.81003943 -0.10208741 0.57742036
0.7858114 -0.083759246 0.61276817
0.76252832 -0.064108835 0.64377062
0.7465748 -0.050120583 0.66341087
0.73285464 -0.040155427 0.67919925
0.71754283 -0.027200087 0.69598307
0.69610447 -0.016757103 0.71774492
0.63805091 -0.0038428587 0.76998459
0.812075 -0.57481194 0.10062521
0.82081511 -0.56040635 0.11048651
0.83365763 -0.53620606 0.13228009
0.83985719 -0.51597606 0.16854856
0.84825411 -0.48506814 0.21254147
0.85667651 -0.45640968 0.24040709
0.86313653 -0.43022666 0.26438673
0.86861391 -0.3979339 0.29522616
0.87252476 -0.36252708 0.32752811
0.87310692 -0.33406621 0.35508318
0.87424329 -0.30734526 0.37581586
0.87273374 -0.27645898 0.40237576
0.86814529 -0.24824135 0.42976738
0.86174485 -0.22011675 0.4571044
0.8564889 -0.18873016 0.48042448
0.85363353 -0.17317657 0.49124299
0.85140556 -0.15639505 0.50064875
0.85046276 -0.14203112 0.50649802
0.84903723 -0.126714 0.51291261
0.84826658 -0.1087072 0.51829196
0.84527183 -0.083021094 0.52784755
0.8323166 -0.069382185 0.54994107
0.80957015 -0.05462688 0.5844759
0.78545175 -0.036930736 0.6178201
0.762263 -0.0132083 0.64713265
0.74506413 0.0028532379 0.66698673
0.73054785 0.011583564 0.68276326
0.71576972 0.023881357 0.69792792
0.69398408 0.053676901 0.71798669
0.63916096 0.072844123 0.76561544
0.82972678 -0.54710656 0.11057971
0.83879706 -0.53064749 0.12178972
0.84809215 -0.50960881 0.14504677
0.85821024 -0.47882109 0.18494743
0.86240409 -0.45015426 0.23156062
0.87012662 -0.41905619 0.25936763
0.87593312 -0.38008548 0.2971131
0.87726853 -0.34929012 0.32923601
0.87907575 -0.31746679 0.35558495
0.87814663 -0.29084704 0.3798243
0.8769287 -0.26184038 0.40303308
0.87325471 -0.23427542 0.42724846
0.8663246 -0.20432708 0.4557764
0.85978801 -0.17607678 0.47933449
0.85436464 -0.15514531 0.49597479
0.85006294 -0.13905135 0.50799383
0.85099582 -0.12590862 0.50985599
0.84832027 -0.11073785 0.51777394
0.8461093 -0.090149335 0.52533052
0.8441228 -0.068847728 0.53171109
0.84053113 -0.040286505 0.54026328
0.82917381 -0.020990558 0.55859662
0.80744521 -0.0047152459 0.58992373
0.7809846 0.020486964 0.62421418
0.76110765 0.040695826 0.64734767
0.74377776 0.05307582 0.66631644
0.72648792 0.065851375 0.68401674
0.70966521 0.084060464 0.69950634
0.68297143 0.11242748 0.72174101
0.62701245 0.15626227 0.76317592
0.84581542 -0.51813288 0.12702204
0.8568781 -0.49667428 0.13811076
0.86459932 -0.47508199 0.16360047
0.8715934 -0.44493109 0.20581856
0.87781469 -0.4079274 0.25107093
0.88421881 -0.36468447 0.29182586
0.88391718 -0.33908236 0.3220459
0.88312241 -0.30610004 0.35552436
0.88215895 -0.27932592 0.3791736
0.88050645 -0.2516538 0.40171975
0.87571813 -0.22284963 0.4283174
0.87068054 -0.19520258 0.45145471
0.86168922 -0.16331516 0.48043714
0.8540086 -0.13585161 0.50220876
0.8504903 -0.12186422 0.51167896
0.84804397 -0.11066015 0.51824295
0.84632747 -0.093997603 0.5243036
0.84397045 -0.079684044 0.53043787
0.84047735 -0.060632364 0.53844363