# vtk DataFile Version 2.0
Grain example
ASCII
DATASET UNSTRUCTURED_GRID
POINTS 900 float
4.8342555 -19.661896 5.8450888
4.8440788 -19.643361 5.2353054
4.8646511 -19.617567 4.6039061
4.8754925 -19.592626 3.9768171
4.8658642 -19.58112 3.3715491
4.8290857 -19.562023 2.7425483
4.7925029 -19.501856 2.1396649
4.7767953 -19.356753 1.5589861
4.7525973 -19.183652 0.97706237
4.7292762 -18.994523 0.3880352
4.7352448 -18.783851 -0.20206115
4.7430994 -18.54498 -0.81211979
4.7353251 -18.24958 -1.4534529
4.7412414 -17.894286 -2.1411542
4.7065151 -17.42109 -2.8903489
4.653047 -16.925245 -3.6284747
4.6161905 -16.41504 -4.3042844
4.5786804 -15.907914 -4.9682165
4.5514724 -15.394889 -5.6450818
4.5141495 -14.884898 -6.3109763
4.4581107 -14.357619 -6.9702836
4.4211325 -13.820169 -7.6233402
4.3813487 -13.297671 -8.2267549
4.4016964 -12.737113 -8.8695535
4.4773718 -12.193756 -9.4886911
4.5715029 -11.66308 -10.1053
4.6663826 -11.118285 -10.727706
4.770723 -10.564926 -11.342913
4.8875574 -9.9678179 -11.99052
4.982916 -9.3998635 -12.606186
3.9165522 -20.230801 5.7503807
3.9271494 -20.214115 5.1224869
3.9484831 -20.181299 4.479819
3.9690494 -20.151956 3.851157
3.9519852 -20.129109 3.2095515
3.9056713 -20.069793 2.610978
3.8897009 -19.920527 2.0390723
3.8467887 -19.731911 1.462368
3.8240836 -19.52614 0.87227336
3.8214658 -19.306675 0.26889996
3.828312 -19.080974 -0.32906992
3.8275671 -18.826383 -0.94706098
3.8209013 -18.499105 -1.5888352
3.799498 -18.109527 -2.2768981
3.7482302 -17.58082 -3.0383418
3.6952348 -17.027006 -3.7439211
3.6489114 -16.500387 -4.4083585
3.611715 -15.988264 -5.0753898
3.5377968 -15.445698 -5.7477291
3.4822571 -14.909006 -6.4109
3.4169876 -14.373612 -7.0701024
3.3794922 -13.834042 -7.7104026
3.3501925 -13.299237 -8.3259746
3.3203863 -12.769407 -8.9342631
3.3551291 -12.25824 -9.5138638
3.4582261 -11.731958 -10.122146
3.5718018 -11.189817 -10.739851
3.6761404 -10.634684 -11.353689
3.7740202 -10.033862 -11.999619
3.8708835 -9.4412211 -12.629612
3.046377 -20.734435 5.7034219
3.0580177 -20.727308 5.0459086
3.0701559 -20.708995 4.3858992
3.1134435 -20.623865 3.7180289
3.1471667 -20.480778 3.094268
3.1412035 -20.344578 2.5017535
3.1177771 -20.170664 1.9037723
3.075353 -19.964209 1.3297031
3.0429223 -19.76151 0.74220865
3.0213617 -19.546425 0.1342699
3.00976 -19.312839 -0.46992611
2.9815988 -19.043193 -1.100333
2.9384635 -18.682929 -1.7510145
2.871793 -18.240076 -2.4482257
2.800676 -17.679894 -3.1681549
2.7295112 -17.099493 -3.8721427
2.6552802 -16.551982 -4.5340637
2.5800807 -16.012988 -5.1813505
2.5015388 -15.460377 -5.8490195
2.4271753 -14.921611 -6.5145566
2.3706121 -14.388221 -7.1580275
2.3375933 -13.846414 -7.7907435
2.30855 -13.311336 -8.4116689
2.2932043 -12.775928 -9.0203255
2.3019824 -12.288612 -9.5697517
2.3257396 -11.797837 -10.132303
2.4208651 -11.245676 -10.754589
2.5020153 -10.679039 -11.372159
2.5904102 -10.071705 -12.013658
2.6777942 -9.475655 -12.641615
2.2740881 -21.107202 5.6910295
2.3166448 -21.048608 5.019377
2.3509975 -20.980372 4.3267604
2.3858112 -20.877001 3.6501192
2.4110831 -20.729865 3.0066426
2.4076496 -20.56612 2.3797582
2.3797365 -20.388235 1.7789813
2.3425564 -20.177621 1.1972936
2.3056375 -19.969065 0.60845766
2.2552722 -19.757355 0.0044803549
2.2262391 -19.505983 -0.62055455
2.1623042 -19.196591 -1.2699487
2.0876303 -18.803231 -1.9333301
1.9834483 -18.318107 -2.6100422
1.8546136 -17.713815 -3.2821286
1.7503708 -17.124155 -3.9831352
1.6442379 -16.558702 -4.6611009
1.5550179 -16.018382 -5.3124261
1.4668063 -15.464562 -5.9755842
1.3725848 -14.919482 -6.6179735
1.300779 -14.384945 -7.2392031
1.2535438 -13.839576 -7.8700615
1.214767 -13.303136 -8.4849662
1.1986569 -12.77253 -9.080644
1.2076776 -12.275189 -9.6278972
1.212725 -11.77289 -10.18831
1.2235162 -11.25591 -10.759348
1.2846985 -10.696401 -11.361356
1.3683549 -10.087585 -12.002009
1.4515043 -9.4837447 -12.635377
1.5520968 -21.375349 5.6955584
1.6016898 -21.307373 4.9813839
1.6375775 -21.233964 4.2593882
1.6624127 -21.13704 3.5883051
1.6647644 -20.986555 2.9292431
1.6673321 -20.808747 2.285695
1.6309522 -20.616834 1.6728984
1.5945333 -20.399199 1.0799423
1.5451813 -20.17737 0.46152417
1.4827307 -19.926035 -0.16005355
1.3936027 -19.63957 -0.79524589
1.2972307 -19.298254 -1.438777
1.1908616 -18.854305 -2.098585
1.0772073 -18.328674 -2.7460365
0.9245655 -17.718251 -3.4124438
0.7914822 -17.118067 -4.0984228
0.67220408 -16.535704 -4.7878727
0.5594218 -15.992272 -5.44106
0.43817028 -15.432815 -6.1047274
0.33819087 -14.892659 -6.7289639
0.25190279 -14.349066 -7.3385369
0.1841771 -13.804271 -7.9376552
0.1259354 -13.266433 -8.5415452
0.080888161 -12.736344 -9.1282761
0.075694934 -12.237214 -9.6750409
0.080742303 -11.734915 -10.235453
0.08231088 -11.214256 -10.809808
0.093593555 -10.682988 -11.380948
0.14206187 -10.093456 -11.994058
0.22046106 -9.4810384 -12.621106
0.81740466 -21.623675 5.6811157
0.86329197 -21.557124 4.9433003
0.88548292 -21.483604 4.2093772
0.89737945 -21.379103 3.515441
0.89898468 -21.244067 2.8611485
0.897062 -21.059848 2.216686
0.88063678 -20.853268 1.5941425
0.82230617 -20.618702 0.97383254
0.73307514 -20.348755 0.32868118
0.63560033 -20.042916 -0.31718803
0.52003189 -19.70747 -0.96087211
0.38662486 -19.341812 -1.6074671
0.26984118 -18.871011 -2.2276911
0.12919658 -18.316076 -2.8862999
-0.037318238 -17.701259 -3.5576795
-0.19481315 -17.093832 -4.2240872
-0.33249846 -16.497797 -4.9163419
-0.45938 -15.94357 -5.5648753
-0.57167946 -15.379195 -6.2130321
-0.6674344 -14.839733 -6.8263845
-0.73566592 -14.301245 -7.4192441
-0.81735671 -13.749958 -8.019805
-0.89033138 -13.207327 -8.6097641
-0.94088698 -12.67701 -9.1799336
-0.97001874 -12.180938 -9.7249771
-0.9839144 -11.682023 -10.289185
-1.0020533 -11.169995 -10.854698
-1.023933 -10.637217 -11.42675
-1.038079 -10.045903 -12.020096
-1.0233172 -9.4354473 -12.60802
0.07797721 -21.87185 5.6664948
0.11593427 -21.806917 4.8934685
0.12442065 -21.728849 4.1510397
0.13657926 -21.62674 3.4496979
0.12922388 -21.491965 2.7834871
0.11756446 -21.304053 2.146841
0.088181928 -21.076594 1.5117055
0.0044186904 -20.780069 0.87066549
-0.11623847 -20.467162 0.21764238
-0.24499044 -20.131728 -0.44918688
-0.38734246 -19.774982 -1.1143707
-0.52890046 -19.349876 -1.7462948
-0.67366657 -18.873475 -2.3737112
-0.84676925 -18.293966 -3.0314318
-1.0180319 -17.671901 -3.6975172
-1.1848225 -17.055763 -4.3619693
-1.3511259 -16.43714 -5.0351073
-1.4776958 -15.876144 -5.685371
-1.5680863 -15.326845 -6.3047422
-1.6548857 -14.785123 -6.9046372
-1.7324725 -14.239988 -7.4957421
-1.8141657 -13.686926 -8.0949343
-1.8895119 -13.142444 -8.6836158
-1.9382084 -12.615408 -9.2450411
-1.9702316 -12.113592 -9.7746818
-1.9936089 -11.610381 -10.336168
-2.0128468 -11.087609 -10.921351
-2.0342484 -10.530784 -11.485978
-2.0436844 -9.9218831 -12.065461
-2.0470271 -9.3236075 -12.63045
-0.66569344 -22.1078 5.6498827
-0.65459875 -22.053632 4.8334041
-0.64636625 -21.978053 4.0946171
-0.63867821 -21.882171 3.3826136
-0.64502933 -21.731457 2.7064514
-0.70283346 -21.504926 2.0688191
-0.78234296 -21.228652 1.4235803
-0.87382623 -20.90232 0.76600734
-1.0071853 -20.567928 0.095296348
-1.1587475 -20.215927 -0.57970328
-1.305996 -19.83965 -1.2273391
-1.4609235 -19.376772 -1.8504852
-1.6228243 -18.86742 -2.4939928
-1.8274732 -18.250049 -3.160736
-2.012713 -17.626598 -3.8317695
-2.1819801 -17.010291 -4.4938931
-2.3550851 -16.380679 -5.1659516
-2.4812198 -15.81647 -5.7718768
-2.5812206 -15.262565 -6.3855093
-2.6585547 -14.714496 -6.9799147
-2.7361435 -14.168473 -7.5703352
-2.8130974 -13.616894 -8.1703746
-2.8794759 -13.077251 -8.7510712
-2.9260583 -12.551891 -9.3080815
-2.9459904 -12.044421 -9.8381793
-2.9528049 -11.529768 -10.389802
-2.9550147 -10.963966 -10.951882
-2.9451414 -10.387189 -11.510316
-2.9082276 -9.7826674 -12.067966
-2.8680938 -9.1945599 -12.604609
-1.422557 -22.336887 5.6154277
-1.4109408 -22.287499 4.784139
-1.4166485 -22.22095 4.0319375
-1.436625 -22.116911 3.3077601
-1.502864 -21.897627 2.6416997
-1.5870883 -21.63585 1.9849828
-1.698988 -21.358431 1.3218656
-1.8178909 -21.015799 0.65283897
-1.9539838 -20.645604 -0.035045611
-2.101088 -20.279834 -0.69356731
-2.2394176 -19.876464 -1.3085896
-2.3962152 -19.403212 -1.9350048
-2.5624808 -18.885318 -2.5805635
-2.7656252 -18.242817 -3.2612923
-2.9806168 -17.600424 -3.9427599
-3.1846487 -16.963704 -4.6085694
-3.3479731 -16.324079 -5.2792641
-3.4720159 -15.747357 -5.8698272
-3.5727974 -15.18717 -6.461929
-3.6431509 -14.641683 -7.0550989
-3.6921982 -14.088453 -7.6409648
-3.7428562 -13.527241 -8.2375034
-3.7763349 -12.985385 -8.8088567
-3.780544 -12.457232 -9.3554814
-3.7652069 -11.948069 -9.8764885
-3.7578441 -11.411254 -10.410129
-3.7418687 -10.850867 -10.958514
-3.7093391 -10.273272 -11.492588
-3.6753136 -9.6652252 -12.036544
-3.629938 -9.0709617 -12.579266
-2.1936434 -22.55842 5.5859084
-2.1857514 -22.498929 4.7398716
-2.2373338 -22.402178 3.9746286
-2.3079085 -22.277323 3.2298772
-2.4202766 -22.029883 2.5547601
-2.5387727 -21.749087 1.8826789
-2.6551617 -21.465814 1.2182198
-2.7830447 -21.109919 0.54770779
-2.9183869 -20.726492 -0.14665658
-3.0398753 -20.326044 -0.76845689
-3.1799489 -19.910832 -1.3883985
-3.3316371 -19.4289 -2.0161643
-3.5045073 -18.902253 -2.6665393
-3.7075264 -18.257842 -3.3485765
-3.9103366 -17.59747 -4.0233425
-4.1044449 -16.947267 -4.6883275
-4.2656138 -16.294396 -5.3444853
-4.3786068 -15.672383 -5.9607748
-4.4546709 -15.096722 -6.5366033
-4.5050376 -14.539598 -7.1167578
-4.542366 -13.98999 -7.7018933
-4.561302 -13.430519 -8.292213
-4.561955 -12.904697 -8.8404129
-4.5524677 -12.375768 -9.3744271
-4.5449466 -11.840518 -9.8869555
-4.5182212 -11.304275 -10.403093
-4.4864301 -10.748338 -10.937187
-4.4562761 -10.166233 -11.467931
-4.4181871 -9.5557632 -12.020917
-4.3846644 -8.9551313 -12.559471
-3.0229996 -22.725525 5.5724183
-3.053358 -22.639065 4.7001681
-3.126597 -22.524086 3.90301
-3.2366676 -22.397984 3.1400154
-3.374335 -22.139884 2.4548037
-3.5025651 -21.857449 1.7889562
-3.6210727 -21.569394 1.1224762
-3.7455737 -21.203399 0.43765564
[...]
POINT_DATA 900
VECTORS normals float
0.54387129 -0.838999 -0.016873338
0.53952076 -0.84156395 -0.026219737
0.53670848 -0.84274983 -0.041433589
0.52215125 -0.85036191 -0.06513601
0.51567636 -0.85257542 -0.084811814
0.50181929 -0.85445068 -0.13450443
0.4898274 -0.85483027 -0.17127268
0.4726973 -0.85585753 -0.209917
0.44933773 -0.85770395 -0.24987905
0.41632892 -0.86331054 -0.28524576
0.39708146 -0.85693305 -0.32862147
0.37468154 -0.84791793 -0.37503189
0.33922717 -0.84047136 -0.42253144
0.30759391 -0.82455326 -0.47486619
0.26635574 -0.8055695 -0.52925646
0.215246 -0.79485981 -0.56733327
0.17960245 -0.78740924 -0.58968606
0.14990914 -0.77668314 -0.61179289
0.12856288 -0.77289283 -0.6213761
0.10949457 -0.767256 -0.63192497
0.096971441 -0.7669975 -0.6342802
0.089307433 -0.7657186 -0.63694522
0.079510027 -0.76497296 -0.63913576
0.06896948 -0.76362326 -0.64196785
0.060066603 -0.76393338 -0.64249342
0.054917826 -0.76254371 -0.64460152
0.048988063 -0.75891596 -0.64934331
0.045516903 -0.75536156 -0.65372557
0.04876334 -0.75242952 -0.65686525
0.057275768 -0.74768775 -0.66157579
0.49098088 -0.87062294 -0.030878177
0.48692908 -0.87200324 -0.050104022
0.48148682 -0.87400182 -0.065507687
0.47168941 -0.87767952 -0.084780628
0.4562782 -0.88047527 -0.12873809
0.44748321 -0.87879309 -0.16577539
0.43903703 -0.87547234 -0.20197691
0.41147079 -0.87551798 -0.25329835
0.39605669 -0.87097281 -0.29076702
0.35745923 -0.87079873 -0.33753885
0.33448225 -0.8622733 -0.38027144
0.30462184 -0.84894863 -0.43184693
0.28301185 -0.83320601 -0.47504951
0.25093136 -0.81683598 -0.51943472
0.20441902 -0.80097082 -0.56272428
0.16319464 -0.78613264 -0.59612329
0.13945502 -0.77786822 -0.61275879
0.10506824 -0.76817279 -0.63156253
0.090971549 -0.76298145 -0.63998709
0.084930649 -0.76320525 -0.64055018
0.078294734 -0.76588603 -0.6381916
0.069823024 -0.76213803 -0.64363839
0.060857563 -0.75876776 -0.64851203
0.052286164 -0.75688377 -0.65145461
0.042967597 -0.7576721 -0.65121945
0.039721743 -0.75666579 -0.65259411
0.034083673 -0.75546226 -0.65430504
0.029897828 -0.75322898 -0.65707855
0.029539713 -0.75460995 -0.65550837
0.033740347 -0.75402018 -0.65598411
0.45109645 -0.89156468 -0.040304136
0.44019233 -0.89548054 -0.065918995
0.43035287 -0.89871527 -0.084304679
0.42144128 -0.89971069 -0.11361299
0.41018845 -0.89894037 -0.15379089
0.3952476 -0.89668757 -0.19932568
0.37597046 -0.89216549 -0.25037361
0.35908458 -0.88653113 -0.29175472
0.33335236 -0.88052741 -0.33696838
0.3024471 -0.87566388 -0.37648177
0.27428049 -0.86639068 -0.41729774
0.24777011 -0.85243683 -0.46039269
0.21913974 -0.83256347 -0.50873946
0.18642144 -0.80725273 -0.55999114
0.15269145 -0.78739561 -0.59723821
0.12589932 -0.772709 -0.62214963
0.10097309 -0.76397513 -0.6372962
0.084978755 -0.75981027 -0.64456727
0.07558886 -0.75972828 -0.64583222
0.071710972 -0.76045077 -0.64542401
0.061463753 -0.75634778 -0.65127586
0.056258471 -0.75480921 -0.65352739
0.04617925 -0.75265343 -0.65679547
0.040210809 -0.7509238 -0.65916351
0.035462488 -0.7533597 -0.65665179
0.032782863 -0.7508847 -0.65961917
0.027836718 -0.75147671 -0.65917211
0.024915959 -0.74947574 -0.66156277
0.020264595 -0.7525149 -0.65826337
0.018942887 -0.75508157 -0.65535715
0.39970006 -0.91558819 -0.044024278
0.39946908 -0.91365792 -0.075190756
0.39479332 -0.91333812 -0.099758271
0.38381345 -0.91401614 -0.13138393
0.37443329 -0.90887833 -0.18368419
0.35963745 -0.90204137 -0.23870959
0.33327612 -0.89805299 -0.2871025
0.31349339 -0.88984073 -0.3315198
0.2831164 -0.88273767 -0.37499241
0.26058453 -0.87258245 -0.41315321
0.23456291 -0.85946936 -0.45419451
0.2072631 -0.84483622 -0.49324817
0.1769501 -0.8228425 -0.54001748
0.15131753 -0.79733269 -0.58426328
0.12414044 -0.77101563 -0.62459912
0.095764102 -0.757619 -0.64563356
0.08117012 -0.75432377 -0.65146532
0.072351201 -0.7538517 -0.65304895
0.066742022 -0.75528876 -0.65198496
0.059939572 -0.75508679 -0.65287915
0.050766509 -0.75096358 -0.65838929
0.042465115 -0.7476242 -0.66276298
0.034508019 -0.74508545 -0.66607573
0.030739603 -0.74734376 -0.66372614
0.026525164 -0.74788031 -0.66330344
0.022586091 -0.74822081 -0.66306523
0.017716249 -0.74752104 -0.66400183
0.015269779 -0.74450768 -0.66743925
0.007846606 -0.74558523 -0.66636408
0.0028769604 -0.75021984 -0.66118221
0.35574116 -0.93321353 -0.050603639
0.35886101 -0.92958685 -0.084184717
0.34838558 -0.93051891 -0.11296923
0.3390808 -0.92897483 -0.14842502
0.32967655 -0.92307462 -0.19810759
0.31730904 -0.91285049 -0.25694154
0.30063735 -0.90203762 -0.3097504
0.27434662 -0.89094194 -0.36187896
0.24202047 -0.87995957 -0.40877531
0.21673914 -0.86626585 -0.45011956
0.18972715 -0.84851579 -0.49398843
0.16371222 -0.82970015 -0.53366279
0.14483982 -0.80888113 -0.56985327
0.12761288 -0.78594921 -0.60497834
0.10058696 -0.76214936 -0.63953938
0.079990775 -0.75054939 -0.6559551
0.06682693 -0.74844806 -0.6598179
0.058118756 -0.75113899 -0.65758073
0.054290534 -0.75175227 -0.65720702
0.045112352 -0.75074007 -0.65905556
0.039383603 -0.74515843 -0.66572355
0.031718509 -0.74314848 -0.66837435
0.023637474 -0.74299416 -0.66888036
0.019827612 -0.74337824 -0.66857734
0.013677931 -0.74476334 -0.66718849
0.0073863467 -0.74462145 -0.66744613
0.00039508222 -0.74173611 -0.67069172
-0.0069601519 -0.73690761 -0.67595764
-0.01733186 -0.73689556 -0.67578438
-0.032696442 -0.73820205 -0.67378682
0.32188595 -0.94560099 -0.047203826
0.32302905 -0.94197156 -0.09133354
0.31953072 -0.939619 -0.1225408
0.31079253 -0.93676007 -0.16089928
0.30200808 -0.92832577 -0.21680031
0.28622877 -0.91886145 -0.27160029
0.25933227 -0.90223613 -0.34455295
0.23536933 -0.88637312 -0.39867777
0.20366812 -0.87105411 -0.44697208
0.18148316 -0.85636222 -0.48343316
0.1620579 -0.83873225 -0.51987061
0.14745377 -0.82180257 -0.55036163
0.12591454 -0.79910722 -0.58785473
0.10556185 -0.77043479 -0.62871849
0.082418825 -0.75020022 -0.65605394
0.066856057 -0.74413064 -0.66468026
0.054357985 -0.74268122 -0.66743525
0.047333064 -0.7466229 -0.66356147
0.04115464 -0.75005625 -0.66009235
0.03341564 -0.74467808 -0.66658679
0.025848677 -0.73996289 -0.67215085
0.017550197 -0.73859954 -0.67391595
0.010745218 -0.73699347 -0.67581445
0.0035995032 -0.73798023 -0.67481273
-0.0056659811 -0.73847832 -0.67425342
-0.01391676 -0.73657469 -0.67621302
-0.026236712 -0.7358234 -0.67666503
-0.041172752 -0.72645981 -0.68597445
-0.056759539 -0.7209648 -0.69064326
-0.068544914 -0.72326361 -0.6871618
0.30037528 -0.9524273 -0.051545513
0.30439346 -0.94761594 -0.096791808
0.30037312 -0.94464621 -0.13198308
0.2878366 -0.94047726 -0.18070033
0.27542058 -0.93032106 -0.24216983
0.25576354 -0.91857993 -0.30132363
0.22448156 -0.8987289 -0.37668872
0.2009999 -0.88284457 -0.42448146
0.18008337 -0.86761555 -0.46347948
0.16259594 -0.84811243 -0.50424981
0.14341209 -0.82743764 -0.54293639
0.1286889 -0.80558817 -0.5783311
0.1107926 -0.78235671 -0.6128972
0.092712797 -0.75765778 -0.6460333
0.073544966 -0.7427602 -0.66550614
0.056725419 -0.73552527 -0.67511836
0.042802223 -0.73931266 -0.67200056
0.036808678 -0.74282577 -0.66847214
0.02906474 -0.7420302 -0.66973609
0.021316127 -0.73851833 -0.67389636
0.012977689 -0.73503674 -0.67790307
0.0041099211 -0.73166055 -0.68165676
-0.0036208926 -0.73053417 -0.68286654
-0.016465097 -0.73010978 -0.68313147
-0.030539346 -0.72854177 -0.68432027
-0.040174207 -0.72466662 -0.68792755
-0.055834266 -0.72143605 -0.69022646
-0.068441283 -0.71537882 -0.69537683
-0.085609896 -0.70743428 -0.70157515
-0.096107905 -0.70696647 -0.70068658
0.27674339 -0.95987592 -0.045291498
0.28284239 -0.95447677 -0.09473272
0.27445704 -0.95041407 -0.14624098
0.26062622 -0.94400735 -0.20229703
0.23594113 -0.93290649 -0.27206115
0.21631527 -0.92061995 -0.32506401
0.19135763 -0.89897425 -0.39398928
0.17690492 -0.88211274 -0.43655671
0.15888527 -0.85781104 -0.48879002
0.14387848 -0.83920224 -0.52444121
0.1299889 -0.82047515 -0.55670766
0.11363199 -0.79698838 -0.59320932
0.097765461 -0.77021 -0.6302527
0.082730106 -0.74614421 -0.66062437
0.062818642 -0.73158245 -0.67885266
0.047978163 -0.72847457 -0.68339073
0.03734779 -0.73305004 -0.67914857
0.026554557 -0.73439848 -0.67819889
0.014950776 -0.73262278 -0.68047067
0.0041626222 -0.7328296 -0.68039948
-0.0046143034 -0.72689231 -0.68673596
-0.014011916 -0.7221468 -0.69159791
-0.026635144 -0.71856968 -0.69494474
-0.041766545 -0.71581456 -0.69704023
-0.055274569 -0.71270248 -0.69928528
-0.068005069 -0.71147698 -0.69941105
-0.084474765 -0.70676425 -0.70238757
-0.095466324 -0.69904949 -0.70867199
-0.10247106 -0.69657524 -0.71012859
-0.11353148 -0.697613 -0.70742258
0.24082664 -0.97013688 -0.02893012
0.25152394 -0.96247561 -0.10186465
0.23897212 -0.9581089 -0.15785965
0.21912962 -0.95082255 -0.21890336
0.20535461 -0.93524725 -0.28834364
0.18477048 -0.9169154 -0.35373157
0.16444639 -0.89559671 -0.41335688
0.15689565 -0.87314823 -0.46151481
0.14266901 -0.85071024 -0.5059028
0.12827385 -0.82883172 -0.54459508
0.11342267 -0.80908271 -0.57664588
0.099809747 -0.78278915 -0.61423055
0.082695855 -0.75716529 -0.64796769
0.070239087 -0.73368466 -0.67585005
0.053036546 -0.72236424 -0.6894759
0.038218024 -0.71983793 -0.69308928
0.025940211 -0.72311755 -0.69023772
0.014912695 -0.72445795 -0.68915767
0.00021476305 -0.72386731 -0.68993918
-0.011719487 -0.72160939 -0.69220123
-0.023546008 -0.71457403 -0.69916345
-0.036354767 -0.70941033 -0.70385745
-0.048287484 -0.70465764 -0.70790248
-0.063603809 -0.70331702 -0.70802523
-0.077637591 -0.69932307 -0.71057699
-0.09113466 -0.69796193 -0.71031233
-0.097245449 -0.69621505 -0.71121581
-0.10479264 -0.69111924 -0.71510328
-0.11411159 -0.68799163 -0.71669105
-0.12216721 -0.6886578 -0.71472065
0.2156436 -0.97625008 -0.020823498
0.21729551 -0.97019845 -0.10722705
0.2029233 -0.96213147 -0.18200323
0.18896276 -0.952346 -0.2394372
0.17499675 -0.93494528 -0.30863161
0.16093062 -0.91286054 -0.3752159
0.15271494 -0.89210596 -0.42523535
0.13947503 -0.86861915 -0.47544452
0.12745178 -0.84302948 -0.52254888
0.11333512 -0.8181675 -0.56369948
0.099131998 -0.79767677 -0.59488202
0.083884111 -0.77049442 -0.63190332
0.073462608 -0.7446901 -0.66335503
0.057523723 -0.72526345 -0.6860641
0.041970151 -0.71489596 -0.69797011
0.027644514 -0.71237041 -0.701259
0.015549426 -0.71638499 -0.6975319
0.001932087 -0.7141553 -0.69998462
-0.013804987 -0.71525568 -0.69872651
-0.02730486 -0.71318203 -0.70044689
-0.040270956 -0.70735924 -0.70570614
-0.055029563 -0.70051545 -0.71151237
-0.068435984 -0.69414775 -0.71657199
-0.081739721 -0.69051101 -0.71868851
-0.093518475 -0.68981201 -0.71792318
-0.10111345 -0.69084118 -0.7159012
-0.10749529 -0.68971345 -0.71605874
-0.11196047 -0.68415294 -0.72069384
-0.11942369 -0.67834994 -0.72496851
-0.13008873 -0.68004933 -0.72153297
0.19038878 -0.98165613 -0.010166271
0.1836654 -0.97660381 -0.1118571
0.17790754 -0.96357999 -0.19965599
0.16735137 -0.94649313 -0.27594253
0.16182552 -0.93053536 -0.32850638
0.15045349 -0.91163731 -0.38246719
0.13835155 -0.8851586 -0.44424441
0.12731813 -0.85697935 -0.4993761
0.11362371 -0.83369297 -0.54041251
0.096861253 -0.81044725 -0.57774835
0.082150525 -0.78879011 -0.60914814
0.070470831 -0.760035 -0.64605005
0.058750289 -0.73682086 -0.67353056
0.043914564 -0.71814953 -0.69450181
0.026798974 -0.70708624 -0.70661932
0.0105379 -0.70366236 -0.71045636
5.8300814e-05 -0.70438475 -0.70981837
-0.017853324 -0.70699659 -0.70699157
-0.031013406 -0.70719571 -0.70633731
-0.042426731 -0.70226128 -0.71065397
-0.054279782 -0.69698934 -0.71502417
-0.070056785 -0.69085517 -0.71959098
-0.082192007 -0.6860352 -0.7229109
-0.09116996 -0.68296399 -0.72474011
-0.10194372 -0.68499678 -0.72137846
-0.11079902 -0.68624275 -0.71888419
-0.11453916 -0.68599794 -0.71853156
-0.11719236 -0.68190506 -0.7219913
-0.12739234 -0.67379685 -0.72785232
-0.14203152 -0.66656012 -0.7317955
0.16031803 -0.98688436 0.01890496
0.1590036 -0.98056831 -0.11490709
0.16104402 -0.96020559 -0.22818862
0.15709113 -0.94552337 -0.28514547
0.150319 -0.92837622 -0.33988495
0.13825559 -0.90628271 -0.39942089
0.12850603 -0.87904985 -0.4590834
0.11284074 -0.84744795 -0.51874748
0.099009321 -0.82333881 -0.55884734
0.083912289 -0.80130401 -0.59234333
0.068806268 -0.77765753 -0.62491156
0.054654937 -0.75273451 -0.65605152
0.042561111 -0.72755127 -0.68473185
0.026871783 -0.70835505 -0.70534461
0.0092466168 -0.69990104 -0.71417997
-0.0046002817 -0.69412808 -0.71983682
-0.014668081 -0.69748877 -0.71644558
-0.028071511 -0.6980767 -0.71547251
-0.040216609 -0.69808061 -0.71488886
-0.051606051 -0.69461824 -0.71752513
-0.063670912 -0.68871114 -0.72223471
-0.074837029 -0.68201696 -0.72749727
-0.084767114 -0.67704565 -0.7310429
-0.097853036 -0.67645542 -0.72995401
-0.10836866 -0.67917368 -0.72593343
-0.11372177 -0.68257651 -0.72191181
-0.11845371 -0.68524047 -0.71861966
-0.13033038 -0.67252839 -0.72850502
-0.14479057 -0.6637362 -0.73381874
-0.16875141 -0.64807959 -0.74264111
0.14105748 -0.98966652 0.02574799
0.14624087 -0.98213505 -0.11842446
0.15071917 -0.96077937 -0.23278046
0.14525477 -0.94609746 -0.28948342
0.13718617 -0.92582034 -0.35218837
0.1279158 -0.90028735 -0.4160772
0.11413278 -0.87143857 -0.47704144
0.098958639 -0.83757507 -0.53728502
0.078864787 -0.80804411 -0.58381938
0.066577827 -0.78759996 -0.61257954
0.051621351 -0.77013781 -0.63578533
0.039066647 -0.74599587 -0.66480371
0.025876158 -0.72064782 -0.69281826
0.0092183494 -0.70290076 -0.7112282
-0.0019628665 -0.69563668 -0.71839109
-0.016317104 -0.6928519 -0.72089528
-0.024540943 -0.69357193 -0.71996925
-0.037983752 -0.69210631 -0.72079546
-0.051429979 -0.69335915 -0.71875451
-0.066339729 -0.68730523 -0.72333295
-0.074422087 -0.67977613 -0.729634
-0.08399995 -0.67300017 -0.73485698
-0.092330395 -0.66886129 -0.73763112
-0.10170907 -0.67091479 -0.73452611
-0.11148026 -0.67369278 -0.73055471
-0.12333658 -0.67377115 -0.72857431
-0.13855698 -0.67076707 -0.72861067
-0.15350649 -0.66053898 -0.7349313
-0.18387864 -0.64024896 -0.74583505
-0.20517066 -0.62166878 -0.75593183
0.12894128 -0.99116665 0.031029457
0.1369404 -0.98246667 -0.12651704
0.13998847 -0.96059775 -0.24011494
0.13149166 -0.94443193 -0.30126113
0.12008288 -0.91888005 -0.3758185
0.1104296 -0.89368304 -0.4348976
0.097446846 -0.86639242 -0.4897635
0.076927257 -0.82939181 -0.55334567
0.063791137 -0.80380868 -0.59145778
0.049524377 -0.77928605 -0.6247084
0.038618741 -0.75967484 -0.6491554
0.025767799 -0.73619162 -0.67628243
0.014635526 -0.71326624 -0.70074037
-0.0027014626 -0.69790137 -0.71618879
-0.019320488 -0.68824346 -0.72522249
-0.029134373 -0.68482674 -0.72812329
-0.039597988 -0.6858465 -0.72666813
-0.050972804 -0.68599286 -0.72582062
-0.066075776 -0.68431137 -0.72619002
-0.075577499 -0.68043483 -0.72890087
-0.087071594 -0.67212868 -0.73529693
-0.094531847 -0.66611226 -0.7398366
-0.10108991 -0.66353912 -0.74128042
-0.11094503 -0.66457933 -0.73893539
-0.12488851 -0.664377 -0.73688945
-0.14430837 -0.66018355 -0.7371111
-0.1609665 -0.65295212 -0.74009683
-0.18786894 -0.63358877 -0.75051351
-0.2248373 -0.60474909 -0.76402011
-0.24995903 -0.58301195 -0.77305727
0.12720496 -0.99155536 0.025236186
0.12513951 -0.98297923 -0.1345063
0.12279697 -0.96328042 -0.23877132
0.11413762 -0.94071278 -0.31942459
0.10597997 -0.91551516 -0.38807247
0.092689665 -0.88530116 -0.45568683
0.08130311 -0.85536879 -0.51159949
0.066232034 -0.82255108 -0.56482124
0.051727595 -0.79611471 -0.60293086
0.044330642 -0.77449555 -0.63102411
0.028159519 -0.75074508 -0.65999156
0.012779642 -0.72641232 -0.68714032
0.0019103423 -0.70412665 -0.71007184
-0.016582947 -0.6896276 -0.7239743
-0.031939794 -0.68228369 -0.7303895
-0.042401138 -0.68028593 -0.73171935
-0.053253738 -0.68154692 -0.72983411
-0.065408881 -0.682146 -0.72828464
-0.077572444 -0.67971323 -0.72936441
-0.090740649 -0.67369138 -0.73342079
-0.098490612 -0.66514387 -0.74019134
-0.10778193 -0.66045761 -0.74308735
-0.11720247 -0.65800756 -0.74383441
-0.12774087 -0.65657458 -0.74336538
-0.14329902 -0.65353213 -0.74321003
-0.16192924 -0.64667524 -0.74537914
-0.19251477 -0.6292785 -0.75295858
-0.23191936 -0.60930427 -0.7582623
-0.26463579 -0.58246461 -0.76857197
-0.2897113 -0.54748607 -0.78506456
0.10575951 -0.99390173 0.031213276
0.11208155 -0.98309921 -0.14475385
0.1077601 -0.9607712 -0.25555128
0.1035912 -0.93892504 -0.32815947
0.08955393 -0.91580011 -0.39152299
0.07732037 -0.88191098 -0.46503181
0.066281559 -0.8451198 -0.53045196
0.054923473 -0.81993889 -0.56981017
0.046322344 -0.79479715 -0.60510472
0.033093642 -0.77007674 -0.63709233
0.022192367 -0.74556942 -0.66605836
0.0064258561 -0.72112176 -0.69277855
-0.0058611795 -0.69871895 -0.71537226
-0.023676695 -0.68387991 -0.72921032
-0.041261014 -0.67521346 -0.73646746
-0.055130526 -0.67171152 -0.73875859
-0.062949551 -0.67428246 -0.73578565
-0.074318481 -0.67425576 -0.73474889
-0.092378571 -0.67272996 -0.7340985
-0.10362673 -0.66778927 -0.73710175
-0.11441371 -0.65982902 -0.74265414
-0.12589563 -0.65452831 -0.74548171
-0.1361027 -0.64981436 -0.74780837
-0.14993441 -0.64204061 -0.7518667
-0.17497431 -0.63009096 -0.75655097
-0.2022271 -0.61793411 -0.75977736
-0.23271037 -0.59658946 -0.76806699
-0.2736012 -0.57694573 -0.7695947
-0.30923102 -0.5447551 -0.77949859
-0.3261204 -0.51799206 -0.79077792
0.094996277 -0.99547592 -0.0018464261
0.10552983 -0.98273405 -0.1519778
0.09783768 -0.96176928 -0.25578827
0.089527723 -0.94141102 -0.32516162
0.081415155 -0.9140868 -0.39726175
0.072881769 -0.88508543 -0.45968687
0.058820779 -0.84829185 -0.52625189
0.048065773 -0.81734896 -0.57413444
0.037531294 -0.79106062 -0.61058537
0.02499205 -0.76652041 -0.64173347
0.011929232 -0.73956432 -0.67298017
-0.0055984307 -0.71589758 -0.69818286
-0.014734323 -0.69178411 -0.72195405
-0.028820321 -0.67884512 -0.73371567
-0.046278346 -0.6700291 -0.7408909
-0.060741719 -0.66547475 -0.74394476
-0.072544997 -0.66642717 -0.74203238
-0.085513049 -0.66664032 -0.7404581
-0.10415316 -0.66343414 -0.74095024
-0.11858544 -0.6583543 -0.74330822
-0.13010796 -0.65128986 -0.74759176
-0.14250813 -0.64545367 -0.75038723
-0.16272501 -0.63403127 -0.75599267
-0.18443386 -0.61972368 -0.76284121
-0.21825866 -0.59981171 -0.76979807
-0.23825487 -0.58531997 -0.77500655
-0.27660669 -0.56225218 -0.77933383
-0.30977344 -0.5384101 -0.78368041
-0.33714096 -0.51853137 -0.78578699
-0.36598758 -0.49064153 -0.79077429
0.10108318 -0.99450646 -0.027186306
0.089397101 -0.98207095 -0.16596626
0.075557122 -0.96350308 -0.25681305
0.072616542 -0.94316647 -0.32428977
0.070318283 -0.91526347 -0.3966713
0.067563307 -0.88305726 -0.46437601
0.053440346 -0.8483812 -0.52668156
0.041586526 -0.81152729 -0.58283275
0.026124173 -0.78513652 -0.6187715
0.01021938 -0.75981177 -0.65006279
-0.001864156 -0.73312478 -0.6800916
-0.0080208494 -0.71098442 -0.70316202
-0.021049623 -0.6870628 -0.72629307
-0.034667859 -0.67417433 -0.73775817
-0.051542688 -0.66274611 -0.74706823
-0.067397731 -0.65707869 -0.750803
-0.085433607 -0.65560345 -0.75025677
-0.1061 -0.65447588 -0.74860144
-0.12557232 -0.6523531 -0.74744032
-0.1375438 -0.64891321 -0.74832703
-0.15203723 -0.64278938 -0.7508039
-0.16790953 -0.63307085 -0.75566374
-0.18814672 -0.61896652 -0.76254918
-0.21989829 -0.59481067 -0.77320438
-0.25223638 -0.57387806 -0.77912822
-0.28314492 -0.54650452 -0.78813816
-0.31720586 -0.52132043 -0.79221553
-0.34769423 -0.508127 -0.78798203
-0.37341965 -0.48922009 -0.78817604
-0.40263031 -0.4569931 -0.79312429
0.098562231 -0.99507599 -0.010452764
0.079335577 -0.98369641 -0.16139156
0.06465406 -0.96418259 -0.25723879
0.055937932 -0.94295435 -0.32818904
0.048526744 -0.91710736 -0.39567568
0.047503849 -0.88295324 -0.46705135
0.032230381 -0.83927927 -0.54274442
0.026837027 -0.8043508 -0.59354828
0.014958476 -0.78307061 -0.62175289
0.004759852 -0.75653741 -0.65393309
-0.0060254253 -0.73049366 -0.68289289
-0.017011323 -0.70473947 -0.70926222
-0.027741885 -0.68285578 -0.73002628
-0.041544583 -0.6644526 -0.74617477
-0.059503687 -0.65483026 -0.75342992
-0.080703489 -0.64580402 -0.759226
-0.09992181 -0.64200941 -0.76015758
-0.12695526 -0.64109899 -0.7568847
-0.15210655 -0.64044957 -0.75278678
-0.16604689 -0.63505795 -0.75440694