# vtk DataFile Version 2.0
Grain example
ASCII
DATASET UNSTRUCTURED_GRID
POINTS 900 float
-9.9941477 4.8953702 -14.262289
-9.205862 5.1437166 -15.033112
-8.3885728 5.3474322 -15.835532
-7.6042564 5.4357107 -16.604196
-6.8683694 5.4991489 -17.305213
-6.2143353 5.5779709 -17.930638
-5.5989112 5.6419207 -18.496897
-5.0901527 5.6909177 -18.946983
-4.6066378 5.7350921 -19.369298
-4.1462438 5.7475696 -19.752049
-3.6853586 5.7612742 -20.105217
-3.2131185 5.7826379 -20.460144
-2.7415832 5.8326378 -20.806922
-2.284835 5.8700884 -21.136992
-1.8049732 5.873037 -21.450654
-1.3094808 5.8553095 -21.757484
-0.81517699 5.8434915 -22.057373
-0.36017124 5.8103415 -22.330681
0.096451079 5.8410037 -22.529018
0.52720629 5.8767442 -22.703844
0.93021388 5.9040467 -22.850846
1.3338981 5.906077 -22.967615
1.7645511 5.9021489 -23.067214
2.2031469 5.8716955 -23.132095
2.6556875 5.8518112 -23.173636
3.1010611 5.8239387 -23.196088
3.5687574 5.8056653 -23.210074
4.0644875 5.7651518 -23.160141
4.5515499 5.7073771 -23.088275
5.0541377 5.6525034 -22.969301
-10.510847 5.1241625 -13.705642
-9.706255 5.4886201 -14.492755
-8.909022 5.7551165 -15.283223
-8.1137467 5.9115519 -16.06662
-7.3269905 6.0553911 -16.831089
-6.603315 6.1486057 -17.500929
-5.9480829 6.2765986 -18.110383
-5.4075975 6.3561511 -18.604789
-4.9139285 6.4052593 -19.043342
-4.4327455 6.4078452 -19.445523
-3.9510069 6.4439543 -19.840794
-3.4654076 6.5149016 -20.217926
-2.9743707 6.5657123 -20.569212
-2.487718 6.6234765 -20.900824
-1.997748 6.6469695 -21.21706
-1.5018069 6.6349608 -21.525907
-1.0157892 6.6069102 -21.823925
-0.55478666 6.5691114 -22.102032
-0.084850553 6.5734378 -22.342233
0.35636522 6.5907012 -22.513938
0.79198686 6.6138083 -22.671163
1.1963044 6.6491581 -22.800764
1.6377492 6.6496365 -22.896178
2.0852065 6.6146926 -22.96435
2.5395176 6.5621187 -22.991986
3.0065183 6.5089218 -23.012407
3.4926062 6.4516488 -23.020732
3.9846089 6.3962338 -22.996747
4.523675 6.3424155 -22.897884
5.0464626 6.2837482 -22.786179
-10.979321 5.2065023 -13.158548
-10.202192 5.7818543 -13.944877
-9.4121147 6.1351124 -14.72657
-8.628512 6.3531366 -15.501008
-7.8155556 6.535652 -16.291215
-7.0248168 6.7479234 -17.02842
-6.3200741 6.9173163 -17.6643
-5.7627085 7.0062891 -18.207787
-5.2168884 7.0680353 -18.69222
-4.7189242 7.0996589 -19.116533
-4.2116984 7.1675161 -19.52526
-3.7112447 7.2385896 -19.91415
-3.2042521 7.3138494 -20.29117
-2.695139 7.3614951 -20.651138
-2.1993512 7.403743 -20.971597
-1.6962662 7.4183964 -21.287064
-1.2233787 7.3775859 -21.577316
-0.76232683 7.3553003 -21.841668
-0.29130909 7.3072609 -22.110223
0.17395132 7.3368717 -22.29347
0.63538972 7.3472923 -22.461292
1.0712676 7.3362321 -22.59493
1.4989375 7.3214578 -22.691878
1.9537155 7.2821176 -22.754289
2.4263243 7.2293007 -22.781713
2.9027963 7.1695084 -22.794323
3.3942844 7.1027925 -22.805878
3.9215255 7.0467353 -22.782148
4.4745148 6.9925156 -22.68541
5.0112924 6.9285877 -22.583805
-11.440281 5.2943752 -12.615297
-10.666107 5.8844742 -13.404892
-9.8950551 6.4527375 -14.185391
-9.1246836 6.7685456 -14.949595
-8.3194322 7.024156 -15.713351
-7.5011233 7.2972978 -16.476872
-6.7330372 7.5238362 -17.172569
-6.1060954 7.6385106 -17.757532
-5.5416528 7.7311174 -18.288636
-5.0080298 7.7947121 -18.750704
-4.4762854 7.8735673 -19.185077
-3.9448577 7.9497812 -19.598713
-3.4343289 8.022166 -19.977621
-2.9107228 8.1029182 -20.332792
-2.4002408 8.1569455 -20.6846
-1.8980047 8.1630806 -21.017029
-1.4315519 8.1505882 -21.302152
-0.97127337 8.1074763 -21.55869
-0.48539918 8.0627755 -21.820407
-0.010335367 8.0480249 -22.040315
0.45623426 8.0361546 -22.206435
0.91625815 8.0002815 -22.33686
1.3719097 7.9628263 -22.449198
1.8245821 7.9318144 -22.516059
2.3100164 7.8827455 -22.557783
2.805586 7.8218314 -22.579325
3.315389 7.7639181 -22.564439
3.8587131 7.7095593 -22.532548
4.4158198 7.6489523 -22.470751
4.9681032 7.5826533 -22.379555
-11.888526 5.3616204 -12.088561
-11.125374 5.9717273 -12.867915
-10.347971 6.6172747 -13.657493
-9.5880275 7.1261356 -14.401666
-8.8114832 7.5308933 -15.132481
-7.9980712 7.8313368 -15.893349
-7.1862803 8.0911304 -16.645237
-6.4883909 8.2587595 -17.266802
-5.864152 8.4037417 -17.842888
-5.3057659 8.4904367 -18.335253
-4.7486288 8.572479 -18.786736
-4.2004144 8.6599394 -19.220431
-3.6568629 8.7315392 -19.615654
-3.1260667 8.8032115 -19.99308
-2.6156609 8.8774504 -20.342991
-2.1056054 8.8826306 -20.655849
-1.6259641 8.8449197 -20.948585
-1.150578 8.8062481 -21.228378
-0.66958836 8.7664793 -21.504659
-0.19778222 8.7130637 -21.760725
0.2821827 8.6906462 -21.905383
0.75292885 8.6654272 -22.034134
1.2169042 8.6240317 -22.150272
1.6772011 8.5981629 -22.244775
2.1841415 8.5430689 -22.312035
2.7122795 8.485401 -22.336836
3.2472936 8.4337485 -22.31058
3.7956564 8.3734042 -22.283484
4.3359621 8.3194919 -22.243494
4.9099777 8.2459036 -22.157344
-12.328012 5.4121898 -11.581458
-11.554076 6.0363457 -12.362928
-10.782302 6.7314502 -13.137642
-10.01056 7.4263253 -13.869143
-9.2572568 7.919972 -14.587666
-8.4860148 8.3289958 -15.315323
-7.6540156 8.6418682 -16.07462
-6.9022095 8.8628199 -16.752221
-6.2297618 9.0599203 -17.339824
-5.6114049 9.1813958 -17.877565
-5.0350177 9.2736482 -18.357274
-4.4677084 9.3592479 -18.794645
-3.8949812 9.4440011 -19.218773
-3.3509989 9.4897162 -19.598553
-2.8390246 9.5245542 -19.927054
-2.3282072 9.5389606 -20.248108
-1.805207 9.5470867 -20.559988
-1.3294228 9.5203596 -20.844289
-0.85376584 9.4659718 -21.117717
-0.36951484 9.3998318 -21.361915
0.11739715 9.3404205 -21.577513
0.58537702 9.3180287 -21.7089
1.0608491 9.2786506 -21.839387
1.5337114 9.2475305 -21.944776
2.0478726 9.2141005 -22.016638
2.6140746 9.1522265 -22.038732
3.1737476 9.0922927 -22.035384
3.7302364 9.0281491 -22.022186
4.2718119 8.9907544 -21.978103
4.8605593 8.9477751 -21.876103
-12.71641 5.4592532 -11.123122
-11.983061 6.1248455 -11.860092
-11.201232 6.8793328 -12.622976
-10.415743 7.6092359 -13.358606
-9.6661803 8.20577 -14.080152
-8.9087419 8.7008558 -14.79356
-8.1032602 9.1425736 -15.513787
-7.3072939 9.4746254 -16.223492
-6.5934689 9.7006893 -16.822171
-5.9615136 9.8406229 -17.369675
-5.3422864 9.9531798 -17.890995
-4.7377013 10.038217 -18.352363
-4.1533609 10.083182 -18.77424
-3.5810783 10.137634 -19.166763
-3.063371 10.173528 -19.497498
-2.5482585 10.207568 -19.809061
-2.0135221 10.228335 -20.129427
-1.512499 10.218973 -20.416664
-1.0171215 10.167581 -20.680446
-0.53442011 10.096788 -20.933585
-0.04537484 10.025684 -21.183118
0.42388928 9.9844249 -21.336134
0.91337487 9.9503432 -21.47095
1.4036358 9.9101053 -21.573108
1.9440279 9.8869588 -21.634629
2.5004815 9.84229 -21.668883
3.0782008 9.7797988 -21.674476
3.6801147 9.7234504 -21.669209
4.2467757 9.6904541 -21.623017
4.8453932 9.6528235 -21.517713
-13.054337 5.4946099 -10.734239
-12.375304 6.2552607 -11.389658
-11.590078 7.0272744 -12.132777
-10.810073 7.7735612 -12.867348
-10.052345 8.4431599 -13.579475
-9.2916235 9.0173462 -14.29552
-8.4848182 9.5481663 -14.99424
-7.6708175 9.9965058 -15.690992
-6.9669095 10.302374 -16.296888
-6.3047664 10.494817 -16.84858
-5.6685845 10.586951 -17.35251
-5.0336214 10.65958 -17.834496
-4.4146099 10.737277 -18.272622
-3.8361498 10.799371 -18.654843
-3.2866663 10.854282 -19.01041
-2.7592726 10.896516 -19.333367
-2.2144551 10.908582 -19.634821
-1.6798447 10.90422 -19.910555
-1.1733001 10.886247 -20.17149
-0.68894693 10.836955 -20.427259
-0.19657985 10.763166 -20.683837
0.27435621 10.688727 -20.902268
0.7946014 10.65546 -21.030444
1.3186136 10.621582 -21.11658
1.8679563 10.58548 -21.197856
2.413746 10.567215 -21.238478
2.9913215 10.514845 -21.258086
3.6128202 10.456228 -21.241165
4.2378072 10.415907 -21.189837
4.8774347 10.42287 -21.069713
-13.360369 5.5744293 -10.365287
-12.705157 6.3730245 -10.974308
-11.978306 7.1756958 -11.649879
-11.191353 7.9455721 -12.388721
-10.434449 8.6382177 -13.093658
-9.6324952 9.2993148 -13.817241
-8.8038437 9.9202533 -14.506861
-7.9979948 10.440432 -15.165428
-7.2867268 10.814214 -15.782348
-6.6061424 11.04913 -16.317122
-5.9726185 11.165843 -16.792506
-5.3463578 11.27269 -17.25556
-4.6986597 11.379236 -17.706721
-4.0964613 11.461278 -18.111106
-3.5396186 11.527934 -18.472243
-2.9694383 11.581756 -18.816012
-2.4052368 11.583947 -19.117812
-1.8658791 11.580875 -19.396414
-1.3361427 11.573806 -19.668787
-0.84313448 11.55399 -19.92153
-0.34614218 11.505399 -20.175601
0.15566621 11.426966 -20.39536
0.68764376 11.384765 -20.533422
1.2386459 11.366267 -20.620749
1.8006323 11.343547 -20.690442
2.3586864 11.328121 -20.735383
2.9338053 11.296791 -20.764662
3.5855133 11.275406 -20.716077
4.2482646 11.26305 -20.625272
4.915738 11.241171 -20.538037
-13.656382 5.6701907 -10.007069
-13.007238 6.4828962 -10.595208
-12.323978 7.3276671 -11.212053
-11.57286 8.1230652 -11.906181
-10.796473 8.8343289 -12.617714
-9.9481013 9.5824154 -13.299305
-9.1074698 10.275762 -13.998879
-8.3017223 10.849178 -14.662148
-7.5839694 11.251651 -15.254536
-6.8946201 11.520094 -15.792791
-6.248941 11.697874 -16.26082
-5.6103218 11.861379 -16.707219
-4.9937807 11.989652 -17.13691
-4.4008869 12.098377 -17.527163
-3.7921404 12.203739 -17.889998
-3.2082769 12.260554 -18.227434
-2.6223355 12.283918 -18.56043
-2.0598828 12.289279 -18.859479
-1.5162164 12.284472 -19.139994
-0.98620253 12.278595 -19.392822
-0.45618746 12.2619 -19.611576
0.064781978 12.223991 -19.82194
0.6074888 12.184144 -19.984837
1.1886047 12.188247 -20.044699
1.767395 12.186266 -20.098467
2.3380581 12.187346 -20.133079
2.9599508 12.219729 -20.102273
3.6131105 12.240278 -20.039683
4.2683153 12.213897 -19.96734
4.9334978 12.18658 -19.889144
-13.936248 5.7535207 -9.6623799
-13.288141 6.6118755 -10.236863
-12.627112 7.4618364 -10.83321
-11.928982 8.2928852 -11.446392
-11.114527 9.0910905 -12.104361
-10.270946 9.8592687 -12.774182
-9.4149677 10.591673 -13.47519
-8.6069051 11.222902 -14.149462
-7.8633718 11.653906 -14.713639
-7.168699 11.994896 -15.241583
-6.5092092 12.233253 -15.709227
-5.8551484 12.43328 -16.160347
-5.2494492 12.583508 -16.563707
-4.6429536 12.71396 -16.93522
[...]
POINT_DATA 900
VECTORS normals float
-0.72565695 0.030172198 -0.68739481
-0.71669972 0.031472468 -0.69667137
-0.7089405 0.031923678 -0.70454542
-0.70071646 0.024250718 -0.71302759
-0.6924028 0.028686925 -0.72094065
-0.67987919 0.031429544 -0.7326503
-0.66575294 0.03988316 -0.7451056
-0.65029206 0.043506609 -0.75843748
-0.63577361 0.052576456 -0.77008287
-0.62509814 0.048667033 -0.77902749
-0.61066436 0.057005259 -0.78983507
-0.59302361 0.049350627 -0.80367128
-0.57646343 0.058398382 -0.81503346
-0.55571946 0.064548552 -0.82886028
-0.53980504 0.062825769 -0.83944234
-0.51958961 0.057290541 -0.85249307
-0.49711639 0.064061853 -0.86531577
-0.47095669 0.059837342 -0.88012459
-0.43108513 0.075347729 -0.89915979
-0.38071394 0.08953688 -0.92034778
-0.30932988 0.10622499 -0.94500332
-0.2412344 0.11819921 -0.96324188
-0.15826883 0.12080477 -0.97997816
-0.11194829 0.12498573 -0.98582257
-0.047874399 0.1434524 -0.98849858
0.015476827 0.15744058 -0.98740718
0.084983552 0.15567961 -0.98414514
0.15331381 0.15273313 -0.97630296
0.20318725 0.13940841 -0.96916471
0.24594342 0.12956331 -0.96058585
-0.73180124 0.046043219 -0.679961
-0.72871366 0.052134336 -0.68283118
-0.71763919 0.053097144 -0.69438799
-0.70734186 0.051185807 -0.70501596
-0.69741395 0.053952905 -0.71463478
-0.68580064 0.060295559 -0.72528748
-0.67011765 0.077930615 -0.73815253
-0.65539571 0.08298501 -0.75071296
-0.63766604 0.095606299 -0.76435689
-0.62939974 0.096314041 -0.77108986
-0.62136615 0.097942932 -0.77737461
-0.60685389 0.10268045 -0.78815295
-0.58492466 0.10650451 -0.80406463
-0.5580072 0.11061787 -0.82243033
-0.54302834 0.11359451 -0.8319955
-0.52395355 0.11623971 -0.84377782
-0.50129813 0.12111519 -0.85675626
-0.46698277 0.12213208 -0.87579155
-0.43431282 0.14472721 -0.88905928
-0.37623484 0.16877983 -0.91102179
-0.29676186 0.19242631 -0.9353633
-0.2341619 0.20212821 -0.95095341
-0.17234776 0.21985412 -0.9601877
-0.093175728 0.24384738 -0.96532727
-0.027520472 0.25111015 -0.96756722
0.028925849 0.26430723 -0.96400466
0.094141263 0.26283914 -0.96023591
0.13616967 0.26791573 -0.95377093
0.18481514 0.24823157 -0.95090717
0.22915304 0.2285469 -0.94617926
-0.7368433 0.062523598 -0.67316621
-0.73296667 0.07193124 -0.67645085
-0.724313 0.071763142 -0.68572642
-0.71545876 0.07200007 -0.69493507
-0.70567952 0.072822558 -0.70477889
-0.69324456 0.082996578 -0.7159075
-0.67771693 0.096593482 -0.72895094
-0.66014819 0.11334248 -0.74253475
-0.64121506 0.12218512 -0.75757115
-0.63014324 0.12893226 -0.76569966
-0.62216548 0.13247663 -0.77159578
-0.61055915 0.13573566 -0.78025211
-0.59350854 0.14131308 -0.79232457
-0.57106894 0.14677489 -0.80767406
-0.54566126 0.15640302 -0.82328117
-0.51878312 0.17058949 -0.83771314
-0.49529079 0.17643789 -0.85062136
-0.46630151 0.18766212 -0.86449166
-0.42205754 0.20803456 -0.88237694
-0.36041118 0.23788482 -0.90195044
-0.30775452 0.25853548 -0.91566728
-0.23335678 0.28342035 -0.93017069
-0.14968568 0.30345812 -0.94101401
-0.075783346 0.31452486 -0.94621932
-0.0086015499 0.32924459 -0.94420549
0.043492275 0.32770003 -0.94378023
0.087751958 0.32563665 -0.94141402
0.13305828 0.31703652 -0.93903319
0.1614232 0.31440303 -0.93546421
0.2032828 0.29938425 -0.93222592
-0.73872831 0.079584079 -0.66928833
-0.7396717 0.085536302 -0.66750979
-0.73421384 0.092136071 -0.67263733
-0.72273321 0.090373944 -0.68519287
-0.71327753 0.10204213 -0.69341371
-0.70258185 0.10480064 -0.70384343
-0.6814402 0.1209993 -0.72180221
-0.66399542 0.13450134 -0.73554026
-0.64212744 0.14464514 -0.75282809
-0.63136188 0.15303821 -0.76023778
-0.6228623 0.16168491 -0.76544141
-0.61470038 0.16655708 -0.77097483
-0.5984689 0.18059934 -0.78052473
-0.57614441 0.19181179 -0.79452241
-0.5383156 0.20975609 -0.81622221
-0.51407469 0.22613236 -0.82740037
-0.49135806 0.24406765 -0.83606114
-0.45199848 0.26449473 -0.8519037
-0.40478266 0.28480971 -0.86892717
-0.34833754 0.31358373 -0.88336074
-0.29721793 0.33063812 -0.8957343
-0.22212239 0.35075076 -0.90974477
-0.17252688 0.3580116 -0.91763946
-0.089700071 0.37138276 -0.92413676
-0.015552438 0.37430151 -0.92717663
0.04020133 0.37702102 -0.92533184
0.074678694 0.37028773 -0.92591041
0.11949013 0.36629591 -0.92279435
0.15889774 0.35659372 -0.92064783
0.18615075 0.35121147 -0.91760471
-0.74447413 0.094769004 -0.66089115
-0.74168129 0.098917264 -0.66341859
-0.74099198 0.1026651 -0.66361944
-0.73478743 0.11163547 -0.66904779
-0.72066124 0.12618466 -0.68170727
-0.70935209 0.13274701 -0.69224117
-0.6895023 0.14342032 -0.70994168
-0.67232595 0.1616072 -0.72239943
-0.65145226 0.17322354 -0.73864982
-0.62817392 0.18622083 -0.75545968
-0.61975332 0.19809345 -0.75938449
-0.60927403 0.20888425 -0.76495263
-0.59534086 0.22914745 -0.77010435
-0.57130528 0.24670458 -0.78278166
-0.53308014 0.26605339 -0.80314454
-0.50806589 0.28915159 -0.81133249
-0.47127551 0.30209592 -0.8286359
-0.43589295 0.31740988 -0.84216881
-0.39721425 0.34415765 -0.85075046
-0.34679765 0.35892421 -0.86654763
-0.28750566 0.3756361 -0.88104371
-0.2378907 0.40059026 -0.8848364
-0.17364371 0.41333167 -0.89387068
-0.098271017 0.42036517 -0.9020177
-0.021727057 0.41494176 -0.90958852
0.036316753 0.40988588 -0.91141355
0.07980993 0.40674393 -0.91004931
0.1097698 0.40264824 -0.90874913
0.14491354 0.40795649 -0.90142752
0.17037702 0.39200472 -0.90404866
-0.74858729 0.10536907 -0.65461013
-0.74512984 0.11712126 -0.65655475
-0.74585666 0.11958891 -0.6552834
-0.73985162 0.13255637 -0.65958198
-0.73215333 0.14908342 -0.66462444
-0.7154607 0.16203566 -0.67960314
-0.70175502 0.17267342 -0.69117565
-0.67641527 0.19069584 -0.71140528
-0.65084427 0.20821228 -0.73010231
-0.62907489 0.22539044 -0.74395157
-0.61588083 0.23038055 -0.75340268
-0.60224155 0.25193402 -0.75751856
-0.58127533 0.27276348 -0.76662838
-0.56446413 0.28542985 -0.7745386
-0.53733082 0.31359322 -0.78290158
-0.49590261 0.34337351 -0.79760594
-0.45610173 0.36433641 -0.81192992
-0.42688258 0.37253914 -0.82400598
-0.38599276 0.38654698 -0.83761031
-0.33728754 0.39955983 -0.85240193
-0.28369108 0.41968855 -0.86219539
-0.23516115 0.43571743 -0.86882078
-0.16812325 0.44740128 -0.87838868
-0.11165985 0.45338016 -0.88429549
-0.053412016 0.45355948 -0.88962405
0.019151081 0.44646599 -0.89459564
0.068700192 0.44157151 -0.89459202
0.10422756 0.43943903 -0.89220511
0.14498337 0.44258124 -0.88493032
0.17894532 0.43496917 -0.88248535
-0.75119945 0.11986176 -0.64910133
-0.74749978 0.12719478 -0.65197052
-0.74972692 0.13515761 -0.64779778
-0.75004477 0.15060097 -0.64401257
-0.73676753 0.16931193 -0.65460451
-0.72497703 0.18790379 -0.66264656
-0.71143648 0.20244152 -0.67296031
-0.68604094 0.2233633 -0.69242809
-0.6591581 0.24367841 -0.71142915
-0.62656794 0.2662063 -0.73249357
-0.60706129 0.2834652 -0.74237731
-0.58872293 0.3036943 -0.7491162
-0.579475 0.31057188 -0.75349441
-0.56014804 0.33086797 -0.75944753
-0.52517235 0.35636978 -0.77278366
-0.48667266 0.39063931 -0.7813774
-0.45188477 0.40933334 -0.79261994
-0.41235973 0.42337101 -0.80666997
-0.37691062 0.43033369 -0.82021418
-0.34137619 0.44015586 -0.83049691
-0.29592355 0.44527339 -0.84508039
-0.23229472 0.46484348 -0.85437679
-0.17779731 0.47537946 -0.86162781
-0.12760098 0.48159798 -0.86705327
-0.061787395 0.49371154 -0.86742794
-0.0046148171 0.49069421 -0.87131963
0.052069141 0.48903379 -0.87070934
0.1071073 0.48298769 -0.86905173
0.14208967 0.47967209 -0.86586674
0.17649651 0.47572427 -0.86170494
-0.75464454 0.12894047 -0.6433397
-0.75015159 0.14005605 -0.6462638
-0.7521917 0.14793358 -0.64212406
-0.75235895 0.16627204 -0.6374242
-0.74556765 0.18728333 -0.63957317
-0.73209541 0.20789194 -0.64870429
-0.72018496 0.22675704 -0.65567894
-0.69460832 0.25611818 -0.672252
-0.66444854 0.28390005 -0.69130955
-0.63302402 0.3140526 -0.70756735
-0.60479353 0.32736855 -0.72598527
-0.58162945 0.34587437 -0.73625953
-0.56067542 0.36829648 -0.74162037
-0.54221546 0.38677588 -0.74592682
-0.51318284 0.40806041 -0.75506959
-0.47471618 0.43131235 -0.76721197
-0.44121253 0.44957608 -0.77666778
-0.41112205 0.46126805 -0.7862636
-0.37809596 0.47251113 -0.79610092
-0.33524758 0.48405257 -0.8082711
-0.29143613 0.4913151 -0.82077674
-0.24026983 0.49719873 -0.83370488
-0.17761345 0.51048763 -0.84134169
-0.11279817 0.51739134 -0.84828225
-0.056184112 0.52007493 -0.85227074
-0.002586978 0.52255841 -0.85259956
0.042511696 0.52076893 -0.85263854
0.098640921 0.51307608 -0.85265638
0.14068926 0.5085074 -0.84948617
0.17581984 0.50386493 -0.84569942
-0.75425677 0.13538509 -0.64246992
-0.75913978 0.15152367 -0.6330461
-0.75326988 0.16391626 -0.63695835
-0.75666914 0.18364524 -0.62747609
-0.75034687 0.20044702 -0.62992108
-0.73718879 0.22802591 -0.63604785
-0.72199134 0.25774735 -0.64210187
-0.69916265 0.29535134 -0.65110611
-0.66357484 0.33038478 -0.67120365
-0.62964828 0.35411314 -0.69148169
-0.60364151 0.37325842 -0.70448214
-0.57811069 0.38923517 -0.71713598
-0.55517252 0.40134971 -0.72849289
-0.52755613 0.42473598 -0.73571997
-0.50014738 0.44169134 -0.74482304
-0.46170115 0.46139802 -0.75759087
-0.42843099 0.48042106 -0.76527282
-0.39658293 0.49503409 -0.77308682
-0.36501743 0.50611181 -0.78141737
-0.3273492 0.51581979 -0.79168961
-0.28988446 0.52096032 -0.80284952
-0.24631343 0.52918346 -0.81196955
-0.17714814 0.53727636 -0.82459241
-0.1234867 0.54471636 -0.82947883
-0.066088726 0.55198891 -0.83122832
-0.0097397126 0.55214739 -0.83368963
0.034827672 0.55352966 -0.83210092
0.081355952 0.5433783 -0.8355365
0.12952218 0.53512372 -0.83478537
0.16205398 0.53104646 -0.83170197
-0.76077194 0.14600693 -0.63238282
-0.75756619 0.15553342 -0.63395806
-0.76009306 0.18464279 -0.62302935
-0.75588884 0.20216084 -0.62270623
-0.75509212 0.21747432 -0.61849884
-0.74058156 0.25813121 -0.62040893
-0.72657992 0.28592431 -0.62476308
-0.70334647 0.32682095 -0.63126208
-0.67159912 0.3668634 -0.64371257
-0.63077645 0.3920605 -0.66963396
-0.60154523 0.40826993 -0.68662872
-0.57349125 0.42983231 -0.6973894
-0.55272732 0.44118496 -0.70699953
-0.52768863 0.45518993 -0.71717978
-0.49282647 0.47365221 -0.72991483
-0.45773102 0.4887514 -0.74270073
-0.429798 0.50274696 -0.75001279
-0.39732045 0.51662569 -0.75844206
-0.36217967 0.52512384 -0.77011093
-0.3290565 0.53447429 -0.77849795
-0.28689173 0.54452322 -0.78815455
-0.24077417 0.5539443 -0.79697774
-0.18188435 0.56276335 -0.80635941
-0.12010629 0.57090016 -0.81218685
-0.067824089 0.57399316 -0.81604641
-0.015298336 0.57452463 -0.81834431
0.027879673 0.57497349 -0.81769689
0.071453876 0.569757 -0.81870099
0.10739133 0.56156943 -0.82043091
0.14100263 0.55019466 -0.82304562
-0.76695789 0.15439073 -0.62284757
-0.76611793 0.1727983 -0.61903478
-0.760699 0.19794286 -0.61818739
-0.75926848 0.22187141 -0.61178792
-0.75703403 0.24368462 -0.60623203
-0.74691539 0.27943587 -0.60335147
-0.72991809 0.31029115 -0.6090476
-0.70907708 0.34674106 -0.61398725
-0.6775672 0.38842227 -0.62452448
-0.63929849 0.42080435 -0.64360013
-0.60105767 0.44184045 -0.66596298
-0.57356121 0.45853783 -0.67880086
-0.54766757 0.47262009 -0.69042775
-0.52143743 0.48747858 -0.70033395
-0.48894053 0.50608591 -0.71050279
-0.45880626 0.51898593 -0.72121455
-0.41840693 0.53753303 -0.73211603
-0.39708306 0.53919181 -0.74269592
-0.36404168 0.5450995 -0.75520871
-0.32945896 0.55760077 -0.76193055
-0.28595617 0.56893275 -0.77106718
-0.23625848 0.58112934 -0.77876224
-0.17740685 0.58827737 -0.78895915
-0.11424795 0.59095362 -0.79857449
-0.061082147 0.59005641 -0.80504808
-0.022426032 0.58859979 -0.80811346
0.021400287 0.58815635 -0.80846406
0.058509031 0.58242781 -0.81077404
0.089240255 0.5767913 -0.81200245
0.12203 0.56624179 -0.81515576
-0.77394826 0.16744101 -0.61071074
-0.76980714 0.18659141 -0.61039382
-0.77021082 0.21852201 -0.59918563
-0.76265057 0.24477857 -0.5987049
-0.75925693 0.27015707 -0.59206762
-0.75017764 0.30590927 -0.58621927
-0.73606949 0.33208269 -0.58984981
-0.71023419 0.37656208 -0.59478432
-0.68555948 0.40508028 -0.60491171
-0.649528 0.43586425 -0.62300541
-0.61747674 0.4589022 -0.63885151
-0.57625123 0.48112778 -0.66064406
-0.55365279 0.49727921 -0.66796854
-0.52233299 0.51655847 -0.67848035
-0.49218049 0.53435519 -0.68718476
-0.46579636 0.54610123 -0.69628098
-0.43653564 0.55173862 -0.71064839
-0.39650146 0.5650295 -0.72355252
-0.36424901 0.5734769 -0.73378941
-0.3244664 0.58088956 -0.74651783
-0.28765033 0.59143076 -0.75330402
-0.2379339 0.60219014 -0.7620725
-0.17767722 0.60726378 -0.77437814
-0.1181833 0.61218402 -0.78183338
-0.073408638 0.60862871 -0.79005207
-0.028945416 0.60850773 -0.79301987
0.0096842281 0.60022208 -0.79977476
0.045632418 0.59163224 -0.80491551
0.077970614 0.58264917 -0.80897499
0.10639434 0.57589264 -0.81057258
-0.77789269 0.18208403 -0.60143858
-0.77747871 0.20708083 -0.59383869
-0.77477691 0.23225999 -0.58802724
-0.76667042 0.2628488 -0.58577041
-0.7628818 0.29549803 -0.57505849
-0.755767 0.32526091 -0.56834987
-0.7377022 0.35756516 -0.57266274
-0.71644462 0.3968794 -0.57375417
-0.68922107 0.42934273 -0.58364299
-0.655288 0.45859164 -0.60024274
-0.61951583 0.48406069 -0.61796875
-0.58058031 0.50296593 -0.64027476
-0.55285422 0.52105269 -0.65027403
-0.52325262 0.54040379 -0.65891611
-0.49457402 0.55914707 -0.66539544
-0.47084256 0.56909279 -0.67412215
-0.4414121 0.58003916 -0.68462394
-0.40986643 0.58813181 -0.69721624
-0.3648845 0.59885028 -0.71290788
-0.32402714 0.60809498 -0.72472541
-0.28324039 0.61895467 -0.73257764
-0.23118489 0.62714496 -0.74380289
-0.1759835 0.62905101 -0.75718204
-0.12869826 0.62902883 -0.76665474
-0.084592571 0.62620388 -0.77505664
-0.047953696 0.6218833 -0.78164033
-0.0059026595 0.61185985 -0.79094417
0.029319575 0.60492113 -0.79574543
0.061476968 0.59321724 -0.80269165
0.090975469 0.58559242 -0.80548432
-0.78333105 0.19474939 -0.59030936
-0.78013704 0.22404122 -0.58411619
-0.77659133 0.25338086 -0.57680503
-0.77453372 0.28206331 -0.56616059
-0.76452469 0.31839363 -0.56047078
-0.75680843 0.35028903 -0.55185016
-0.73937155 0.3939092 -0.54604509
-0.72188845 0.41555874 -0.55334257
-0.69243481 0.44810567 -0.56545144
-0.66117076 0.47710706 -0.57898366
-0.6230203 0.50835695 -0.59449047
-0.58732927 0.52739646 -0.61391962
-0.55493012 0.54945934 -0.62461748
-0.52199362 0.56692166 -0.63727741
-0.49075549 0.58362403 -0.64694825
-0.46666379 0.59730383 -0.65226762
-0.44093655 0.60560835 -0.66242999
-0.40988596 0.61473261 -0.67386743
-0.37361735 0.6227289 -0.68747276
-0.32638018 0.63520327 -0.69999485
-0.27528548 0.64132854 -0.71618127
-0.23651236 0.64576267 -0.7259838
-0.18704941 0.64397415 -0.74182869
-0.13790503 0.63686076 -0.75854503
-0.10079823 0.63499874 -0.76590881
-0.062449608 0.62816378 -0.77557096
-0.023175194 0.62167294 -0.78293401
0.014814154 0.6121173 -0.7906282
0.042975861 0.60818271 -0.79263287
0.069242537 0.59746738 -0.79889811
-0.78647426 0.21367622 -0.57948314
-0.78171561 0.24153048 -0.57496411
-0.78128393 0.27173767 -0.56191998
-0.77507184 0.30400467 -0.55393573
-0.76775968 0.34065303 -0.54267908
-0.75736702 0.38224062 -0.52942167
-0.74063419 0.41774727 -0.5262587
-0.7244101 0.4450593 -0.52645249
-0.6958216 0.47926847 -0.53491497
-0.66459563 0.49937553 -0.55582077
-0.62661229 0.53340615 -0.56818563
-0.59094925 0.55636326 -0.58415658
-0.56206737 0.57597967 -0.59357197
-0.52357072 0.59665068 -0.60817897
-0.49293507 0.60784022 -0.62253135
-0.4662629 0.61758603 -0.63339277
-0.4428649 0.62478173 -0.64305401
-0.41274229 0.63535779 -0.65265939
-0.37988285 0.64464012 -0.66342154
-0.3408594 0.65378871 -0.67555547
-0.30013032 0.66141093 -0.68735535
-0.24357111 0.6620575 -0.70876864
-0.19834596 0.65732974 -0.72703266
-0.15378436 0.64700882 -0.7468132
-0.11717594 0.64208232 -0.75762794
-0.077147664 0.63300833 -0.77029131
-0.038412411 0.62587834 -0.77897419
-0.0061642702 0.61940033 -0.7850511
0.026893129 0.61580812 -0.78743706
0.059051994 0.60355664 -0.79513033
-0.79114425 0.22844912 -0.56736388
-0.79055142 0.26559974 -0.55180181
-0.78296735 0.28819028 -0.55127896
-0.77833977 0.3245225 -0.53746847
-0.77227196 0.35764314 -0.52505943
-0.75689789 0.40382516 -0.5138393
-0.74335089 0.44780069 -0.49689436
-0.72425528 0.47336433 -0.50137859
-0.70301252 0.50050681 -0.50523888
-0.66847968 0.53004946 -0.52171112
-0.63098146 0.55993952 -0.53696381
-0.59376434 0.58616624 -0.55122867
-0.56085054 0.60345694 -0.56682131
-0.52809642 0.6237351 -0.57625402
-0.50119439 0.63064498 -0.59252941
-0.47583542 0.63533372 -0.60822012
-0.44648333 0.64150629 -0.62379669
-0.41630508 0.65169732 -0.63401947
-0.37963798 0.6624847 -0.64574688
-0.34627356 0.66988249 -0.65677398
-0.31247999 0.6741546 -0.66923227
-0.26956632 0.67541421 -0.68640342
-0.22220544 0.67256492 -0.70589034
-0.17540477 0.66510782 -0.7258545
-0.13259488 0.65300582 -0.74565542
-0.10359593 0.64274273 -0.75904523
-0.062546787 0.63238134 -0.77212806
-0.023349797 0.62757055 -0.77820948
0.013197671 0.62030773 -0.7842475
0.047097527 0.60686449 -0.79340866
-0.7995079 0.24310646 -0.54925984
-0.79245304 0.28204018 -0.54080635
-0.78992786 0.31456628 -0.52636682
-0.78156901 0.34904671 -0.51702638
-0.77368078 0.38553644 -0.50277202
-0.7591696 0.43093091 -0.48781151
-0.74457118 0.47263312 -0.47141457
-0.72793483 0.5029245 -0.46602342
-0.7095609 0.52365142 -0.47150029
-0.67606392 0.55296494 -0.48699832
-0.63362578 0.58961032 -0.50087728
-0.59770258 0.61604378 -0.51307084
-0.56465973 0.63411324 -0.52826109
-0.54062696 0.64281706 -0.54268658
-0.51283854 0.64534097 -0.56615516
-0.48966217 0.64917411 -0.58206867
-0.45299579 0.65732826 -0.60225774
-0.42010895 0.66757039 -0.61470176
-0.38463021 0.67583742 -0.62873156
-0.34946892 0.68423215 -0.64007643
-0.32058412 0.68612595 -0.65303676
-0.2873136 0.68927687 -0.6650927
-0.25196829 0.68622656 -0.68235262
-0.21164314 0.68080065 -0.70122583
-0.16425638 0.66807004 -0.72574256
-0.12324908 0.65794358 -0.74291313
-0.082686136 0.6489814 -0.75629766
-0.044540762 0.64485678 -0.76300449
-0.0060435748 0.64093761 -0.76756919
0.031210452 0.62483689 -0.78013125
-0.80547621 0.26610986 -0.52952207
-0.7974183 0.30214119 -0.52233587
-0.79382198 0.34075275 -0.50372039
-0.78348731 0.3770602 -0.49393648
-0.77441808 0.40973832 -0.48206966
-0.75924235 0.45971409 -0.46066691
-0.74463178 0.49908756 -0.44321002
-0.73064872 0.52252308 -0.43945656
-0.71425744 0.54812812 -0.43519177
-0.67602388 0.58475711 -0.44838692
-0.63745588 0.61464502 -0.46460898
-0.60121482 0.64099895 -0.47713844
-0.57337553 0.65163659 -0.49659869
-0.55358106 0.658781 -0.509466
-0.53139935 0.6601639 -0.53084682
-0.5034174 0.66410132 -0.55275705
-0.46850647 0.67153866 -0.57405358
-0.42996296 0.6794451 -0.59454706
-0.39041705 0.68879581 -0.61084765
-0.35922926 0.69422896 -0.62369903
-0.32629708 0.69788784 -0.63756001
-0.29649839 0.70080958 -0.64881017
-0.26985122 0.69921912 -0.66202186
-0.23389794 0.69650303 -0.67836221
-0.19367178 0.68895951 -0.69844545
-0.15101793 0.68267166 -0.71494964
-0.10469289 0.67545519 -0.72993129
-0.061380044 0.6721607 -0.73785668
-0.026645781 0.66821018 -0.74349523
0.013773614 0.6513416 -0.75865961
-0.80833596 0.28755932 -0.51371452
-0.80687363 0.32974822 -0.49012351
-0.79580237 0.37002895 -0.47935077
-0.78940586 0.40110826 -0.4647048
-0.77866271 0.44593241 -0.44139399
-0.76001552 0.48537696 -0.43218702
-0.74652372 0.51846443 -0.41700955
-0.73598017 0.54605781 -0.40019253
-0.714503 0.56935871 -0.40659086
-0.6859474 0.60111242 -0.4100488
-0.64516633 0.63437873 -0.4258216
-0.61097173 0.65447296 -0.44539723
-0.58288847 0.66876278 -0.4615164
-0.56940505 0.67056243 -0.47552488
-0.5480043 0.67321435 -0.49646119
-0.52014061 0.67770084 -0.5197839
-0.4848566 0.68761131 -0.54046717
-0.44445009 0.69693232 -0.56280499
-0.40541025 0.70356813 -0.58363894
-0.36707209 0.71071592 -0.60011745
-0.33828319 0.71175285 -0.61560731
-0.31031994 0.7143908 -0.62717407
-0.2817966 0.71602132 -0.63867373
-0.24705893 0.7163812 -0.65250277
-0.21172646 0.7134842 -0.66791631
-0.17095629 0.7104957 -0.68261981
-0.12525167 0.70358304 -0.69948761
-0.082530237 0.70209541 -0.7072841
-0.046617993 0.69566304 -0.71685403
-0.014406021 0.68564072 -0.72779755
-0.81500165 0.31604573 -0.48568242
-0.80918096 0.35481975 -0.46832586
-0.8025952 0.39829008 -0.44407878