# vtk DataFile Version 2.0
Grain example
ASCII
DATASET UNSTRUCTURED_GRID
POINTS 900 float
-19.010451 -2.8010748 12.520164
-19.334164 -2.3998783 12.149989
-19.651383 -1.9911438 11.776917
-19.908121 -1.6551605 11.4053
-20.139425 -1.40697 11.031196
-20.357661 -1.1791233 10.66644
-20.529801 -0.88847359 10.334914
-20.686052 -0.58842685 10.010288
-20.840548 -0.30608412 9.6699668
-20.991939 -0.027850226 9.3252563
-21.102589 0.24088022 8.9780795
-21.188784 0.50478948 8.652123
-21.225741 0.76390217 8.3196645
-21.237549 1.0542698 7.9766042
-21.257406 1.325148 7.6129375
-21.303009 1.536905 7.2149165
-21.344006 1.7573475 6.8290529
-21.375998 1.9948843 6.4728638
-21.402871 2.1901785 6.1261314
-21.417917 2.3689912 5.7702124
-21.426773 2.499659 5.4633302
-21.443145 2.6078861 5.1556316
-21.450639 2.6850912 4.8577975
-21.450761 2.7501384 4.5714887
-21.450958 2.8136165 4.3006009
-21.440699 2.8781854 4.0322467
-21.408142 2.9515355 3.8437594
-21.365314 3.0301278 3.6222624
-21.31728 3.1039371 3.3740329
-21.262753 3.1852845 3.122905
-17.848035 -2.6108317 13.681285
-18.173417 -2.142679 13.336766
-18.477854 -1.6715617 12.989606
-18.761931 -1.1975261 12.648174
-19.007803 -0.69464282 12.295533
-19.213757 -0.30027539 11.934071
-19.432996 0.082832632 11.547472
-19.615853 0.40917997 11.188103
-19.788145 0.70418751 10.818679
-19.975276 0.97141109 10.442437
-20.150527 1.2561752 10.052795
-20.307046 1.5317193 9.6480155
-20.40098 1.8177507 9.2241113
-20.506799 2.0552178 8.7896583
-20.594797 2.2369625 8.316096
-20.658392 2.4178529 7.8280461
-20.699495 2.6282849 7.3811513
-20.729342 2.86795 6.9763836
-20.736386 3.1207344 6.6048882
-20.741995 3.3373556 6.2370872
-20.747889 3.5184545 5.8903851
-20.754478 3.6230413 5.5605616
-20.764216 3.706053 5.2398909
-20.770334 3.7746583 4.9251443
-20.777629 3.8252231 4.6375261
-20.763519 3.8980377 4.3184476
-20.734365 3.9842727 3.9808671
-20.681197 4.060703 3.716133
-20.649812 4.1052412 3.4221578
-20.606616 4.1557867 3.144323
-16.918562 -2.4424411 14.57588
-17.2738 -1.9627474 14.221784
-17.5854 -1.4533831 13.852388
-17.880019 -0.91045642 13.484904
-18.174725 -0.36601906 13.104751
-18.423814 0.16263144 12.713686
-18.622551 0.60649541 12.340394
-18.821178 1.000635 11.958819
-19.008995 1.3585889 11.608244
-19.183785 1.6888426 11.257969
-19.359791 1.9824848 10.874269
-19.529775 2.2641962 10.441214
-19.690032 2.5480572 9.9337304
-19.849348 2.7471539 9.4195113
-19.97111 2.933601 8.8978226
-20.055731 3.1503233 8.3662072
-20.092393 3.3940291 7.8625342
-20.114508 3.6580736 7.4378845
-20.132813 3.9130868 7.0443949
-20.135344 4.1429564 6.6676027
-20.133222 4.3587 6.2801559
-20.123104 4.5126031 5.8886262
-20.132488 4.6057878 5.5470116
-20.139752 4.6876996 5.2029135
-20.113933 4.7901867 4.8386273
-20.071038 4.8910384 4.4892288
-20.035587 4.9620449 4.1287847
-20.011268 5.0250165 3.7615997
-19.976808 5.0738304 3.4638262
-19.932438 5.1244716 3.1692481
-16.126501 -2.3160251 15.327353
-16.448844 -1.7691626 14.991147
-16.754915 -1.1936993 14.634793
-17.039152 -0.62488683 14.274801
-17.323409 -0.036698845 13.891682
-17.607843 0.5369813 13.489776
-17.850262 1.0389743 13.098471
-18.058477 1.472432 12.717712
-18.236547 1.8695706 12.338432
-18.422206 2.2437573 11.964014
-18.595368 2.5745349 11.58686
-18.788402 2.868787 11.119957
-18.987308 3.1534157 10.589488
-19.197243 3.3668322 10.013185
-19.321104 3.5942391 9.4528385
-19.400751 3.8491492 8.8892696
-19.461002 4.0981863 8.3480042
-19.485722 4.3547505 7.873009
-19.51625 4.6048624 7.4587634
-19.535299 4.8372923 7.0510833
-19.531868 5.0613662 6.6466482
-19.517504 5.261183 6.2392926
-19.483451 5.4760246 5.812848
-19.448243 5.6202879 5.4009713
-19.429508 5.7210487 4.9943106
-19.397522 5.809599 4.5970996
-19.34539 5.8828439 4.2213622
-19.301732 5.9428021 3.8509986
-19.274266 5.9936725 3.4749783
-19.220255 6.0487236 3.1634743
-15.342019 -2.1855931 16.067629
-15.661013 -1.5596059 15.731693
-15.967322 -0.95856305 15.37539
-16.24718 -0.36168994 15.007234
-16.518114 0.23158722 14.628212
-16.80455 0.82493592 14.227287
-17.067479 1.366453 13.828764
-17.304856 1.8612413 13.435196
-17.506904 2.2856975 13.053369
-17.687119 2.6955395 12.663832
-17.878984 3.0533009 12.215634
-18.076607 3.3590267 11.705737
-18.283874 3.632722 11.157511
-18.475999 3.9307714 10.566314
-18.631821 4.2258556 9.9729124
-18.733525 4.4907839 9.3851501
-18.81027 4.7493696 8.8256586
-18.858702 5.014494 8.2851156
-18.896385 5.2618643 7.8388036
-18.913784 5.5027179 7.4086085
-18.907143 5.7219111 7.0054014
-18.881955 5.9340811 6.569394
-18.821228 6.1837073 6.079418
-18.752561 6.422082 5.5849498
-18.672846 6.6147477 5.1284589
-18.619383 6.7428473 4.6944335
-18.570389 6.8214352 4.3122729
-18.530485 6.8881181 3.9311165
-18.504452 6.9414756 3.5517195
-18.479643 7.0065708 3.1583917
-14.599113 -2.0952522 16.736563
-14.915661 -1.4383264 16.392242
-15.22294 -0.81016049 16.031768
-15.520999 -0.18432167 15.644735
-15.790501 0.40646827 15.26909
-16.075841 0.99834378 14.866843
-16.35855 1.5863982 14.46397
-16.600524 2.1043548 14.074524
-16.826469 2.5914711 13.673445
-17.028945 2.996332 13.245746
-17.243248 3.3667411 12.754417
-17.430988 3.7367497 12.215173
-17.578917 4.1173609 11.655989
-17.75041 4.4426633 11.075066
-17.915561 4.7714667 10.453183
-18.044867 5.0780204 9.8579125
-18.125848 5.3681253 9.2981945
-18.18284 5.6489565 8.7296779
-18.243737 5.9095708 8.24524
-18.27779 6.1537219 7.7792083
-18.277073 6.3774889 7.3372557
-18.214623 6.6253494 6.8400843
-18.126271 6.8776423 6.3367548
-18.020993 7.1497967 5.8074572
-17.914835 7.4101204 5.297616
-17.824516 7.6272322 4.8202875
-17.759514 7.7740593 4.4051698
-17.716605 7.8569079 4.0278487
-17.684627 7.9230269 3.6436174
-17.669652 7.9699175 3.2420577
-13.868827 -2.0317482 17.359909
-14.18816 -1.3794903 17.019036
-14.489917 -0.69140722 16.651252
-14.779025 -0.045614081 16.268415
-15.071069 0.56315016 15.879302
-15.358837 1.1501523 15.477511
-15.657904 1.7385988 15.06144
-15.944193 2.2834639 14.640373
-16.226255 2.7649556 14.203254
-16.459929 3.1966005 13.721535
-16.66398 3.590236 13.18676
-16.827991 4.0184558 12.640393
-16.967496 4.4558448 12.063369
-17.094964 4.8592804 11.480253
-17.212113 5.2422161 10.868139
-17.355525 5.5792463 10.261736
-17.444846 5.9063946 9.7067522
-17.506319 6.2176834 9.1510811
-17.575846 6.5103814 8.643707
-17.646301 6.7703687 8.1403219
-17.607884 7.0449292 7.6084541
-17.510909 7.3209582 7.0790532
-17.403484 7.5969706 6.5624117
-17.284982 7.8833247 6.0321415
-17.166878 8.1651686 5.5100563
-17.04963 8.4352578 4.9916791
-16.962258 8.6423155 4.530806
-16.908664 8.7814756 4.1092788
-16.895877 8.8649895 3.7100464
-16.886779 8.9209057 3.3053696
-13.205424 -2.0276201 17.891966
-13.51864 -1.3420609 17.54841
-13.824159 -0.64104804 17.190207
-14.111835 0.035934237 16.810428
-14.400126 0.67165009 16.431791
-14.682875 1.283623 16.041505
-14.980644 1.8619014 15.62394
-15.299894 2.4154615 15.184354
-15.610238 2.8930219 14.703979
-15.879296 3.3751737 14.161641
-16.073125 3.8137008 13.61651
-16.231785 4.2796523 13.037254
-16.376378 4.729722 12.451491
-16.507113 5.1779536 11.848978
-16.612457 5.6113683 11.230899
-16.72523 5.9884115 10.613495
-16.818938 6.3385559 10.02282
-16.894652 6.6681537 9.4537456
-16.940485 6.975807 8.9121818
-16.947637 7.3403005 8.3662242
-16.894039 7.6830986 7.8126172
-16.800394 7.9843527 7.2513173
-16.682507 8.2760213 6.7191962
-16.560448 8.5704934 6.1819522
-16.435729 8.8597145 5.6568239
-16.335551 9.1325459 5.1133333
-16.259548 9.3616001 4.6048878
-16.212969 9.5286848 4.1380693
-16.173662 9.6416133 3.7265844
-16.15028 9.7316271 3.3168991
-12.555734 -2.0488572 18.379756
-12.881346 -1.3438188 18.025638
-13.204636 -0.64246372 17.673824
-13.503513 0.051832377 17.287152
-13.785106 0.71558053 16.907727
-14.081245 1.3231104 16.508313
-14.392298 1.9015705 16.076347
-14.705451 2.4530835 15.61147
-15.016852 3.0002538 15.124072
-15.27841 3.5044548 14.586406
-15.492357 4.0217418 14.015981
-15.629649 4.5215593 13.41493
-15.778184 4.9898107 12.83158
-15.921107 5.4536386 12.212702
-16.054366 5.9143535 11.568491
-16.168035 6.3286461 10.930135
-16.242469 6.7056134 10.333531
-16.289637 7.0846174 9.7342276
-16.264568 7.4803522 9.1205428
-16.219629 7.8858539 8.5335378
-16.148191 8.2579616 7.9706251
-16.057269 8.5987891 7.3918624
-15.960211 8.9235221 6.8389357
-15.863264 9.2110899 6.3005296
-15.766934 9.4865813 5.7655426
-15.675722 9.7563203 5.2177203
-15.589308 10.003066 4.6951141
-15.53051 10.202514 4.1900981
-15.486849 10.343519 3.7513365
-15.457688 10.444558 3.3357673
-11.925652 -2.0908621 18.861067
-12.258335 -1.3791194 18.502763
-12.577866 -0.67496365 18.151436
-12.894035 0.027449376 17.770495
-13.215174 0.69891702 17.355081
-13.512063 1.320365 16.953901
-13.821698 1.9044688 16.489524
-14.143753 2.4682167 15.99457
-14.458226 3.0200836 15.50578
-14.735581 3.5732897 14.925695
-14.950181 4.1154286 14.329035
-15.122651 4.6688501 13.713347
-15.246547 5.1809078 13.126964
-15.378446 5.6844074 12.534724
-15.496462 6.1680468 11.897837
-15.6106 6.6475108 11.246684
-15.658851 7.0638793 10.627935
-15.659907 7.4882918 9.9897437
-15.610436 7.9485192 9.3022603
-15.537259 8.3872807 8.6830005
-15.450303 8.7794762 8.1111532
-15.389132 9.1050374 7.516556
-15.329266 9.4228208 6.9338341
-15.251232 9.7374957 6.3646784
-15.140828 10.033348 5.8378323
-15.032302 10.330319 5.3068877
-14.948201 10.580047 4.7979271
-14.878294 10.806074 4.2841964
-14.8234 10.990858 3.7930167
-14.779682 11.124285 3.3603191
-11.28857 -2.1400324 19.351762
-11.621659 -1.4226974 18.986243
-11.956835 -0.71545979 18.625924
-12.288577 -0.039247786 18.233626
-12.612306 0.64579846 17.805936
-12.943053 1.2992823 17.338621
-13.257609 1.8945013 16.877597
-13.574813 2.4679968 16.38173
-13.889715 3.031926 15.865276
-14.183751 3.6358884 15.238736
-14.414474 4.2015203 14.606679
-14.605702 4.7802385 13.974745
-14.747303 5.3343586 13.358349
-14.864034 5.8619763 12.763505
-14.986814 6.378713 12.157651
-15.058149 6.8901175 11.520269
-15.09205 7.397867 10.871647
-15.045516 7.883931 10.179851
-14.982854 8.3550249 9.4838069
[...]
POINT_DATA 900
VECTORS normals float
-0.72743298 0.070798036 0.68251659
-0.74171734 0.085641601 0.66522244
-0.75867177 0.11069388 0.642
-0.76703342 0.12391634 0.62952718
-0.77693074 0.13959562 0.61391505
-0.79698149 0.16132788 0.58205998
-0.80666368 0.18465231 0.56142429
-0.82028924 0.2049031 0.53398528
-0.83454715 0.23742793 0.49715092
-0.84435251 0.25710182 0.4700718
-0.85213936 0.2789825 0.44274967
-0.85889189 0.3005705 0.41468312
-0.86137619 0.32105915 0.39363954
-0.86164029 0.35072189 0.36683806
-0.86222124 0.36825408 0.34779803
-0.85992231 0.39409702 0.32437812
-0.86035313 0.41470043 0.29633773
-0.85967498 0.42962168 0.2763768
-0.85339516 0.45724565 0.25028608
-0.85277564 0.47021204 0.22731994
-0.85031757 0.48806571 0.19685501
-0.85174869 0.49483337 0.1722327
-0.8537368 0.50006997 0.14513268
-0.8508331 0.51266711 0.11513242
-0.84814075 0.52073331 0.097437626
-0.85097491 0.520406 0.070846972
-0.84870075 0.52499356 0.063943794
-0.84565189 0.53136462 0.050244599
-0.84564924 0.5326043 0.034785428
-0.84600921 0.53250546 0.026577344
-0.70070114 0.055560126 0.71128826
-0.70825102 0.077041579 0.70174431
-0.72128172 0.094795531 0.68612425
-0.73173697 0.11336858 0.67209268
-0.74249364 0.13410908 0.65629106
-0.75646195 0.15702351 0.6349086
-0.7711931 0.18664498 0.60862538
-0.78062681 0.21165287 0.58806875
-0.7996351 0.2456455 0.54794343
-0.80914451 0.27085447 0.52146238
-0.82201751 0.31130802 0.47683806
-0.82562614 0.33078757 0.45707884
-0.83019918 0.3671325 0.41950335
-0.83139114 0.3944706 0.39138435
-0.83613057 0.41558203 0.3580185
-0.83621082 0.43023381 0.34007403
-0.83471904 0.45277931 0.31342467
-0.83624908 0.46807314 0.2856484
-0.83302616 0.48627039 0.26383427
-0.83294938 0.50078625 0.23539001
-0.83203401 0.51341067 0.2100688
-0.83282851 0.52210417 0.18385841
-0.83389471 0.53071395 0.15153324
-0.83360614 0.53589291 0.13386409
-0.83330127 0.5422336 0.10766483
-0.83220288 0.54804227 0.084190461
-0.83156311 0.55169558 0.064302312
-0.82872564 0.55726542 0.051662947
-0.82647246 0.56175203 0.037120536
-0.82503888 0.56440204 0.027589661
-0.68967935 0.054947316 0.72202714
-0.69267152 0.069771969 0.71787049
-0.70245839 0.089362154 0.7060925
-0.71001013 0.11003105 0.69554208
-0.72462215 0.13881341 0.67502117
-0.73628964 0.16913001 0.65518898
-0.74104839 0.19807741 0.64157043
-0.75540503 0.2237017 0.61589024
-0.76420665 0.25872709 0.59080325
-0.77288609 0.30055347 0.55885124
-0.77862569 0.34277378 0.52559316
-0.78887625 0.39128561 0.47388801
-0.79786332 0.41640742 0.43591166
-0.79979006 0.43494061 0.41371792
-0.80419486 0.45514597 0.382247
-0.80725267 0.47419952 0.35139429
-0.80793693 0.48557768 0.33384462
-0.81134632 0.49834201 0.30556897
-0.81242822 0.51232833 0.27835242
-0.81301213 0.5214849 0.25896866
-0.81574896 0.53023817 0.23108682
-0.81964922 0.53592536 0.20238373
-0.81598805 0.55150571 0.17321937
-0.81547298 0.56138266 0.14090185
-0.81371178 0.5720347 0.10319616
-0.81177944 0.57810426 0.082520308
-0.80971701 0.58452826 0.051817847
-0.80677921 0.58957494 0.038841996
-0.80640367 0.59063837 0.029316228
-0.80420436 0.59386764 0.024012007
-0.67743771 0.049583802 0.73390708
-0.68013512 0.070806266 0.7296593
-0.69006953 0.092084715 0.71786102
-0.69136686 0.11587332 0.71315162
-0.7022785 0.14714334 0.69652978
-0.71468862 0.17721367 0.67662064
-0.72310901 0.21133985 0.65760841
-0.73188413 0.2442209 0.63616175
-0.73191192 0.28227359 0.62018268
-0.73981301 0.33370642 0.58422319
-0.74922793 0.37339048 0.54702564
-0.75102224 0.42501361 0.50530093
-0.75761083 0.45700704 0.46601544
-0.76952696 0.46958814 0.4327993
-0.77187567 0.49013114 0.40494371
-0.77804389 0.50109963 0.3788758
-0.78290794 0.51239043 0.35286146
-0.78386944 0.52575411 0.3303503
-0.78764801 0.53805387 0.30018102
-0.78736008 0.54920474 0.28006831
-0.78852122 0.56027914 0.25361697
-0.78796233 0.57313323 0.22501924
-0.78420555 0.59303264 0.18257586
-0.78636441 0.60043773 0.1452775
-0.7853795 0.60819133 0.11524906
-0.78815783 0.61038977 0.078940226
-0.78774322 0.61340229 0.05655307
-0.78856208 0.61327025 0.045491205
-0.78483197 0.61877328 0.034035429
-0.78561419 0.61834127 0.021550411
-0.65938124 0.051382743 0.75005079
-0.66499955 0.075100385 0.74305823
-0.67235996 0.09828193 0.73367073
-0.67398438 0.1183096 0.72921046
-0.68177814 0.15531429 0.71488184
-0.68611577 0.18739833 0.70294169
-0.69496045 0.22446654 0.68311401
-0.70195136 0.26921992 0.65938223
-0.7075029 0.30423573 0.63787167
-0.71117129 0.35337422 0.60775164
-0.71670935 0.40585284 0.56710774
-0.72001077 0.45012472 0.52817821
-0.72324045 0.48985063 0.48679524
-0.73308247 0.50475569 0.45586378
-0.73754299 0.519199 0.43181331
-0.74647117 0.52802755 0.40492925
-0.75193174 0.53940844 0.37899497
-0.75854768 0.54996751 0.34948697
-0.75823347 0.56374819 0.32752096
-0.75804152 0.58145674 0.29543377
-0.760256 0.59116436 0.26932417
-0.7579257 0.60635455 0.24058842
-0.7542629 0.62229627 0.2093677
-0.75882216 0.63085092 0.1619137
-0.75993605 0.63672427 0.13068817
-0.76791628 0.63291121 0.098630569
-0.76790319 0.63596968 0.076597982
-0.76782284 0.63843355 0.053391835
-0.77181748 0.63467312 0.038572225
-0.77215421 0.63456732 0.033199269
-0.64404271 0.059488953 0.76267297
-0.6501921 0.082254695 0.75530418
-0.65389854 0.10896591 0.74869428
-0.65672319 0.13635048 0.7417029
-0.66094187 0.16219545 0.73269945
-0.66522443 0.19562202 0.72056123
-0.66603842 0.2448234 0.70459515
-0.66946743 0.29223541 0.6829435
-0.67085674 0.34244975 0.65778371
-0.67556691 0.37887873 0.63250316
-0.6795011 0.43221126 0.59285048
-0.68273587 0.48305721 0.54820386
-0.68093698 0.52570078 0.50986618
-0.69227953 0.53743942 0.4815682
-0.70562854 0.54268539 0.4556105
-0.71161858 0.55219449 0.4343734
-0.71746543 0.56155505 0.41218841
-0.72345338 0.57728448 0.37862624
-0.7278861 0.59388862 0.34275084
-0.72554267 0.61141713 0.31584319
-0.72833878 0.62439399 0.28223176
-0.72710417 0.63953076 0.24963961
-0.7299256 0.64595794 0.22348815
-0.73113607 0.65441274 0.19283155
-0.74316474 0.65101891 0.1545333
-0.74492617 0.65604893 0.12118085
-0.74960383 0.65466617 0.097500335
-0.75579491 0.64971076 0.081547442
-0.76003157 0.64721917 0.058816223
-0.76452028 0.64299429 0.045465104
-0.6318455 0.065391777 0.77233101
-0.63219616 0.09662907 0.76875929
-0.63748667 0.11763135 0.76142866
-0.64119817 0.14448398 0.75365064
-0.64149519 0.1786417 0.74603691
-0.64384854 0.21373348 0.73469522
-0.64201207 0.2531736 0.72368752
-0.63860017 0.31225745 0.70333855
-0.63250991 0.3608763 0.68534627
-0.64294439 0.40773533 0.64836288
-0.64186248 0.46275745 0.61144755
-0.6415809 0.51604358 0.56751473
-0.64740229 0.54754247 0.53015801
-0.66097033 0.55791317 0.50184771
-0.66864322 0.56787474 0.48003596
-0.67446105 0.5787708 0.45839575
-0.68108505 0.58456692 0.44091345
-0.68426967 0.60820297 0.40232346
-0.69045876 0.62488086 0.36440445
-0.69048606 0.64227496 0.33273395
-0.69468375 0.65240811 0.30294908
-0.699404 0.66259773 0.26795202
-0.70593188 0.66430558 0.24567922
-0.70849621 0.67055763 0.21996724
-0.7191895 0.66808176 0.19087487
-0.72564174 0.66924385 0.15986471
-0.72946141 0.67036911 0.13598273
-0.73850471 0.66568856 0.1070959
-0.74578651 0.66126786 0.080791705
-0.74908801 0.65904734 0.067258826
-0.62661937 0.07171772 0.77601852
-0.6265335 0.097959293 0.77321391
-0.624137 0.12426731 0.77136933
-0.62161004 0.15770896 0.76728668
-0.62070125 0.19068567 0.76050571
-0.61789126 0.23118992 0.75150623
-0.60452424 0.28592496 0.74350344
-0.60190416 0.34571276 0.71985698
-0.59950622 0.38703523 0.70056836
-0.60019442 0.43985022 0.66805572
-0.60171193 0.48846757 0.63193528
-0.60278251 0.53678072 0.59035558
-0.61253611 0.55907625 0.55877837
-0.62464626 0.5774971 0.52565592
-0.63260021 0.58677975 0.50547651
-0.64317669 0.5990328 0.47695225
-0.64622468 0.61242417 0.45533537
-0.64916295 0.63304207 0.42171698
-0.65438029 0.64877879 0.38842312
-0.66096213 0.66285196 0.3517902
-0.66588685 0.67252384 0.322965
-0.67127555 0.68265039 0.28875178
-0.68307167 0.67921378 0.26848042
-0.68126697 0.68660771 0.25386052
-0.6932313 0.68529609 0.22315832
-0.7088387 0.680818 0.18448452
-0.70981789 0.68607534 0.15955936
-0.72145637 0.6801341 0.1300704
-0.72575186 0.67867469 0.11262723
-0.73380758 0.67451868 0.080938142
-0.61903998 0.088767534 0.78032675
-0.61285795 0.11553838 0.78170072
-0.60823731 0.13623188 0.78197714
-0.60399535 0.16774397 0.77913515
-0.60169985 0.2059154 0.77172284
-0.58609024 0.26407076 0.76600578
-0.57599832 0.30765474 0.75734701
-0.56413376 0.36513547 0.74056005
-0.55905805 0.42568438 0.7115103
-0.55183871 0.46705912 0.6908906
-0.55283397 0.51890775 0.65200411
-0.56251857 0.55506722 0.61275872
-0.57653952 0.5758444 0.57965974
-0.58567175 0.59198911 0.55365828
-0.59771188 0.60312779 0.52818309
-0.60849975 0.61703666 0.4989928
-0.6149303 0.63490804 0.46770985
-0.61577164 0.65563672 0.43699631
-0.61861246 0.67415186 0.40353178
-0.62327591 0.68611895 0.37519052
-0.63487679 0.69125262 0.34511053
-0.63910697 0.69747214 0.3241526
-0.64763418 0.69911507 0.30299849
-0.65644823 0.70145305 0.27755962
-0.67264409 0.69826424 0.24490198
-0.68181585 0.69830888 0.21792626
-0.6860277 0.70148329 0.19309891
-0.69612813 0.69915235 0.16306937
-0.7037933 0.6958839 0.14290064
-0.7107744 0.69419311 0.11355917
-0.60568075 0.10130994 0.78923198
-0.60195231 0.13306519 0.78736718
-0.59146111 0.1572934 0.79084294
-0.58106919 0.1916494 0.7909672
-0.57165031 0.23182764 0.78706535
-0.55412119 0.28981724 0.78035612
-0.54594754 0.34027248 0.7656082
-0.52773654 0.39926837 0.74971922
-0.51717387 0.44323134 0.73217291
-0.50022427 0.50302446 0.70479931
-0.50738067 0.53790878 0.67321542
-0.5130773 0.56891478 0.64271896
-0.52856831 0.59505648 0.6054117
-0.5403398 0.60708506 0.58264966
-0.55290604 0.62201718 0.55442722
-0.56991188 0.63736681 0.5186174
-0.57425372 0.65667732 0.48888399
-0.57980268 0.67415967 0.45753425
-0.58374596 0.68897388 0.42959941
-0.59499668 0.6985462 0.39750744
-0.60645205 0.70216031 0.37307748
-0.61882511 0.70321647 0.35006012
-0.62986286 0.70391604 0.328291
-0.63972407 0.7085597 0.29781917
-0.64794782 0.70856007 0.27947495
-0.65372077 0.71434271 0.24972715
-0.66067413 0.71762177 0.22029229
-0.67302625 0.7138628 0.19348273
-0.67887393 0.71382167 0.17201399
-0.68965845 0.7110485 0.13704469
-0.59484291 0.11205879 0.79599293
-0.58436455 0.15701416 0.79615615
-0.56792396 0.18058621 0.80302615
-0.55077372 0.22351694 0.80416944
-0.53963349 0.26479649 0.79917364
-0.51860401 0.32878086 0.78927373
-0.49727264 0.38294885 0.77850504
-0.48780615 0.43245144 0.75830792
-0.4751829 0.47366785 0.74151195
-0.47161544 0.516926 0.71439931
-0.4567827 0.55612228 0.69431806
-0.47415209 0.58244181 0.66025853
-0.47871503 0.60951526 0.63192014
-0.50276093 0.62784787 0.59417042
-0.509421 0.63827673 0.57714214
-0.52432055 0.65831655 0.54009932
-0.5264375 0.67988448 0.51051019
-0.53870842 0.69447672 0.4769647
-0.55020534 0.70306943 0.45051911
-0.57253459 0.70436369 0.41961403
-0.58968756 0.70458827 0.39474542
-0.60369855 0.70945092 0.36363092
-0.61205885 0.71526474 0.33731338
-0.6186637 0.71667976 0.32190891
-0.62701669 0.71983475 0.2978053
-0.63408683 0.72411041 0.27128951
-0.63928958 0.72915603 0.24421366
-0.65031975 0.72824022 0.21621845
-0.66090303 0.72767511 0.18356502
-0.66775033 0.72675446 0.16105108
-0.57634097 0.1392761 0.80525353
-0.55887495 0.19209411 0.80669612
-0.54466656 0.20822617 0.81239166
-0.53539791 0.24426328 0.8085076
-0.50276628 0.30420094 0.80912783
-0.48923151 0.34640205 0.80041124
-0.46195113 0.41080458 0.78602847
-0.44920558 0.45751551 0.76739423
-0.4338126 0.5012251 0.74871892
-0.4326202 0.53865341 0.72297459
-0.42529585 0.568857 0.70393547
-0.43411689 0.59313919 0.67803276
-0.44114584 0.61935368 0.64945467
-0.45827839 0.63803942 0.61877833
-0.4657695 0.65819431 0.59147191
-0.47636814 0.67642884 0.56170937
-0.48204302 0.696287 0.53180724
-0.50188279 0.70873081 0.49579664
-0.51828679 0.71041911 0.4761129
-0.54492102 0.70977016 0.44641617
-0.56458944 0.71034839 0.42029029
-0.57835939 0.71704176 0.38903924
-0.59155566 0.72222238 0.35840862
-0.59788085 0.72731253 0.33697919
-0.60585058 0.73166376 0.31243114
-0.61615371 0.73393738 0.28581555
-0.62177872 0.73657979 0.26616056
-0.63031322 0.739175 0.23733008
-0.64024471 0.73851872 0.21136891
-0.65197468 0.73722569 0.17727747
-0.53969884 0.16420932 0.82568787
-0.53627637 0.2230391 0.81404006
-0.51825052 0.24788128 0.81851773
-0.49932923 0.2816675 0.81934959
-0.47401541 0.33768004 0.81319222
-0.45341992 0.38012 0.80617564
-0.42979601 0.43926554 0.78887335
-0.41899813 0.48180897 0.76961073
-0.39717207 0.52375992 0.75361124
-0.40233683 0.55012396 0.73177093
-0.40094642 0.58316354 0.70651415
-0.40234911 0.60485847 0.6872128
-0.41168626 0.6247025 0.66352182
-0.42382531 0.64137254 0.63954154
-0.43451318 0.6630762 0.60953117
-0.44093022 0.68802011 0.57637562
-0.44847376 0.70627306 0.54776788
-0.46628663 0.71097344 0.52639676
-0.49122557 0.71138621 0.50262023
-0.52092207 0.71153581 0.47154744
-0.53357972 0.71803709 0.44689532
-0.55130032 0.72489458 0.41303245
-0.56961345 0.73027197 0.37715167
-0.58117591 0.73386166 0.35168398
-0.58927196 0.7375957 0.32971372
-0.60208926 0.73873159 0.30292601
-0.60854208 0.74276141 0.27925261
-0.61769747 0.74479756 0.25244094
-0.62505183 0.74578594 0.23046376
-0.63295515 0.74695094 0.20354869
-0.52132429 0.17694946 0.83481128
-0.50089552 0.2544203 0.82726899
-0.4844145 0.28409166 0.82742644
-0.47283207 0.31384798 0.82336461
-0.45246618 0.35544846 0.81788187
-0.41986284 0.40865007 0.81038282
-0.39778535 0.45953202 0.79410147
-0.39261077 0.49996471 0.77194046
-0.36703965 0.53523194 0.76079476
-0.36223391 0.56822646 0.73885403
-0.37351491 0.58730807 0.71802218
-0.37996865 0.60957885 0.695728
-0.3869394 0.63081071 0.67257397
-0.39485529 0.64749405 0.65179809
-0.40119861 0.67025196 0.62434125
-0.40477395 0.6976581 0.59112707
-0.42359932 0.70823238 0.56477474
-0.45036181 0.71033638 0.54092187
-0.47357153 0.712674 0.51751886
-0.49070837 0.71732811 0.49461669
-0.506934 0.7251411 0.46603467
-0.52203054 0.73209473 0.43763162
-0.53514789 0.7396574 0.4080731
-0.55562245 0.74186337 0.37539636
-0.57116659 0.74361506 0.34757068
-0.58051203 0.74568225 0.32705315
-0.59559757 0.74651778 0.29660535
-0.60269815 0.75173764 0.2676667
-0.61092297 0.75233495 0.24650607
-0.61769956 0.75408151 0.22317779
-0.48919705 0.19689237 0.84965854
-0.47174451 0.27476185 0.83783235
-0.4530253 0.31243533 0.83495643
-0.44438438 0.35018756 0.82455515
-0.41475837 0.39377523 0.82031492
-0.38824186 0.43800687 0.81081332
-0.36829848 0.4786813 0.79700718
-0.35594934 0.52157345 0.77541034
-0.34752292 0.54852359 0.76049306
-0.33805083 0.57835922 0.74244343
-0.34390066 0.59421922 0.72707349
-0.35371336 0.6145833 0.70510583
-0.36827953 0.63364293 0.68034317
-0.37234652 0.65212924 0.66036772
-0.37129403 0.67443277 0.63818585
-0.37638715 0.70103509 0.60570828
-0.39592143 0.70988405 0.58250395
-0.42971701 0.71128853 0.55624808
-0.44394687 0.71389234 0.54154307
-0.46213596 0.72417655 0.51185807
-0.47470227 0.73554625 0.48335232
-0.48901039 0.74158178 0.45926604
-0.50012141 0.74933247 0.43402698
-0.52120794 0.75130083 0.40483249
-0.54080449 0.75146163 0.3779364
-0.55433984 0.75647505 0.34706316
-0.57305639 0.75567837 0.31710655
-0.58392132 0.75663984 0.29416328
-0.59247303 0.76017404 0.26666671
-0.60422789 0.76103179 0.23609167
-0.46431531 0.22208716 0.85737307
-0.43852826 0.2978534 0.84792471
-0.42498437 0.34280583 0.83777828
-0.40509494 0.38692213 0.82836547
-0.37641911 0.43039766 0.82040631
-0.36649225 0.46116067 0.80809298
-0.34622404 0.49583756 0.79641323
-0.33212632 0.53186113 0.77898386
-0.31843643 0.56487429 0.761259
-0.31418332 0.58828865 0.745121
-0.31568548 0.60249547 0.73303607
-0.31979439 0.61996525 0.71650166
-0.33518085 0.63916533 0.69218601
-0.34239092 0.66051085 0.66820197
-0.34623134 0.68148936 0.644745
-0.35801634 0.70387609 0.61350041
-0.37275944 0.70841919 0.59932683
-0.39559732 0.70896775 0.58383858
-0.40602147 0.71950825 0.56343095
-0.42266889 0.73495198 0.53027974
-0.44180096 0.74255587 0.50341105
-0.45481108 0.75167836 0.47762593
-0.46229953 0.76010362 0.45664168
-0.48090267 0.76374267 0.43061555
-0.50153317 0.76543655 0.4032014
-0.52757574 0.76254195 0.37442438
-0.54178533 0.76745315 0.34275987
-0.55974736 0.76685233 0.31403885
-0.57398452 0.76760268 0.28518047
-0.5855 0.76874666 0.25732921
-0.42272401 0.25631075 0.86925785
-0.40734606 0.33546187 0.84943188
-0.39750816 0.36737125 0.84084816
-0.37177569 0.4104723 0.83264358
-0.35185761 0.45026685 0.82064364
-0.34059081 0.48188647 0.80733099
-0.31804504 0.51660661 0.79496224
-0.30441386 0.54803676 0.77909429
-0.29612107 0.5778461 0.7605302
-0.28937178 0.59972712 0.74605051
-0.28406683 0.61104852 0.73886788
-0.28919131 0.62508104 0.72501178
-0.29792724 0.64485203 0.70385028
-0.30731006 0.66602362 0.679686
-0.31421984 0.68989259 0.65216111
-0.3195558 0.70903234 0.62861533
-0.3398216 0.70851731 0.61848565
-0.36634635 0.71229279 0.59868969
-0.37330159 0.72614867 0.57736819
-0.38850652 0.74001864 0.54903105
-0.40720039 0.75028189 0.520831
-0.42222601 0.7578992 0.49730674
-0.43347244 0.76521113 0.47597644
-0.44828435 0.76629992 0.46024513
-0.46663991 0.77146427 0.43253909
-0.49259365 0.77144536 0.40276984
-0.50818002 0.77629829 0.37297993
-0.53064927 0.77645924 0.33988586
-0.54699221 0.77743297 0.31047947
-0.56211743 0.77692387 0.2835724
-0.38635793 0.27511307 0.88036376
-0.38369689 0.35095736 0.85416956
-0.36369595 0.39402104 0.84408096
-0.34577993 0.4303274 0.83381927
-0.32895778 0.46683282 0.82088605
-0.31409036 0.49716959 0.80880755
-0.29690247 0.53094004 0.7936949
-0.27639499 0.56506132 0.77737476
-0.27512808 0.5876856 0.76087461
-0.26597132 0.61260239 0.7442967
-0.26395699 0.62196436 0.73721573
-0.25898596 0.63138053 0.73094794
-0.2614265 0.6532689 0.71056029
-0.2722909 0.67517696 0.6855609
-0.27151489 0.6982641 0.66234954
-0.28075183 0.71036654 0.64541289
-0.29306712 0.7129016 0.63708945
-0.3137311 0.71848718 0.62076483
-0.33027883 0.73610151 0.59082185
-0.35018466 0.74685811 0.56530847
-0.37481519 0.75216719 0.54199455
-0.39160609 0.7611485 0.51700835
-0.40436848 0.76590548 0.49987492
-0.42114447 0.76988911 0.47948733
-0.43743895 0.77363651 0.45840344
-0.4577596 0.77709929 0.43194079
-0.47834925 0.78193181 0.39970569
-0.48934583 0.78580351 0.37822414
-0.51216999 0.78472462 0.34912628
-0.53547052 0.78341336 0.3154914
-0.36869252 0.27936486 0.88657831
-0.35154684 0.35987973 0.86423457
-0.33698828 0.41179164 0.84667972
-0.31665458 0.44900506 0.83553835
-0.30245768 0.48792503 0.81880921
-0.29037795 0.51233384 0.80820461
-0.27314929 0.54502644 0.79267625
-0.25924564 0.57921934 0.7728497
-0.24740029 0.60283339 0.75854136
-0.24264722 0.62028013 0.74590541
-0.23742983 0.6330236 0.73682305
-0.22421051 0.64550722 0.73010279
-0.22965555 0.65900635 0.71621851
-0.23353205 0.68299197 0.69208724
-0.237094 0.69919782 0.67446931
-0.24722181 0.70979496 0.65960025
-0.25873782 0.71671507 0.64759111
-0.27343704 0.72178862 0.63580922
-0.2925702 0.7357182 0.61083664
-0.31096157 0.74796612 0.5863869
-0.33242714 0.75667466 0.56297038
-0.35746687 0.76042668 0.54218881
-0.37494997 0.76665525 0.52120269
-0.39252294 0.7703012 0.50255527
-0.41244464 0.77608588 0.47705358
-0.43081675 0.78132602 0.4515823
-0.44863166 0.78359318 0.42978059
-0.47040769 0.78606534 0.40102106
-0.48128637 0.78950245 0.38085338
-0.505404 0.79041134 0.3461455
-0.33890565 0.30791214 0.88900679
-0.31979953 0.37344161 0.87078679
-0.31259305 0.42350666 0.85025155
-0.29700597 0.46258674 0.83534482
-0.27699641 0.49920155 0.82101815
-0.26137518 0.5314022 0.80578826
-0.24104117 0.56782742 0.78706491
-0.23378347 0.5953755 0.76868284
-0.22273231 0.61404815 0.757189
-0.21766464 0.63000441 0.74546398
-0.21069727 0.64311081 0.73621678
-0.20102973 0.65509386 0.72831249
-0.20017378 0.6667077 0.71793545
-0.19522467 0.68954673 0.69743289
-0.20032838 0.70106209 0.68438329
-0.20760665 0.70932879 0.67361128
-0.21952805 0.71513502 0.66361837
-0.23252488 0.72264367 0.65093649
-0.25231187 0.73332948 0.63132131
-0.27257941 0.74156341 0.61301237
-0.29132055 0.75115145 0.59237136
-0.31443374 0.7588762 0.5702967