# vtk DataFile Version 2.0
Grain example
ASCII
DATASET UNSTRUCTURED_GRID
POINTS 900 float
5.3148656 8.7715409 13.369064
4.5028247 8.7649351 13.560169
3.7113957 8.7693848 13.721946
2.9645605 8.7412702 13.812348
2.3137986 8.7180866 13.827269
1.6810831 8.7182942 13.847553
1.0607169 8.7582049 13.845198
0.45131636 8.7973543 13.837698
-0.17396341 8.8246167 13.820419
-0.83178589 8.8570679 13.770505
-1.4807665 8.8861137 13.724264
-2.1216753 8.9136957 13.654482
-2.7611635 8.9413533 13.561961
-3.4469053 8.9738149 13.422606
-4.1335382 9.0089399 13.288914
-4.8203197 9.0445084 13.156168
-5.5560892 9.017876 13.066551
-6.3228432 8.9435729 13.021028
-7.119971 8.8284049 12.988285
-7.967121 8.7091657 12.93016
-8.7975571 8.5791765 12.873999
-9.6680702 8.3053293 12.879446
-10.490644 8.05563 12.862892
-11.244267 7.8115236 12.8495
-11.973869 7.5840842 12.811793
-12.573534 7.3678565 12.727874
-13.15127 7.1703245 12.604804
-13.723706 6.9354662 12.474773
-14.300532 6.6426037 12.357567
-14.870684 6.3623458 12.210893
5.3294732 7.5964783 14.227443
4.5054472 7.5803702 14.439199
3.6828874 7.562218 14.650835
2.9416699 7.5493227 14.77008
2.3256051 7.5950749 14.813963
1.7051995 7.6397764 14.830248
1.0829227 7.6720866 14.849064
0.45153788 7.6996081 14.861223
-0.16493025 7.7325465 14.85249
-0.8199689 7.7613533 14.803278
-1.4661659 7.786755 14.75774
-2.1080314 7.8215134 14.680325
-2.769228 7.8500281 14.596675
-3.4364735 7.8825941 14.496285
-4.1428833 7.9128059 14.359191
-4.8416099 7.9340818 14.228454
-5.58689 7.9128514 14.139413
-6.3690003 7.8607114 14.06741
-7.2063807 7.775572 14.012065
-8.0557217 7.686979 13.924544
-8.9088472 7.6003483 13.824289
-9.7301572 7.5125049 13.72233
-10.578396 7.294465 13.687823
-11.323079 7.0861829 13.639205
-11.99763 6.8904467 13.498928
-12.603997 6.6837576 13.355881
-13.169554 6.4891222 13.221753
-13.739483 6.28876 13.083678
-14.302771 6.0676541 12.922884
-14.879809 5.8072608 12.755764
5.3306457 6.4335179 15.060836
4.5114462 6.4013619 15.296937
3.6902929 6.3993272 15.518193
2.9666127 6.4386733 15.692183
2.3430692 6.4841137 15.755833
1.7234226 6.5335571 15.794886
1.1078405 6.5778664 15.835701
0.47961744 6.6096061 15.850837
-0.15029085 6.6283987 15.867324
-0.80658258 6.6566316 15.839788
-1.469898 6.6961489 15.787996
-2.1345745 6.7260701 15.721779
-2.8009461 6.7473912 15.643263
-3.4600904 6.765454 15.560284
-4.1630497 6.7947028 15.438049
-4.8674557 6.8236005 15.306615
-5.6099327 6.7986713 15.218158
-6.4022853 6.7451261 15.146697
-7.2689351 6.7179788 15.038573
-8.1321257 6.6538776 14.926532
-8.9828138 6.5822635 14.806437
-9.817322 6.5324323 14.659927
-10.623995 6.4847874 14.501661
-11.329451 6.3329967 14.35004
-11.966708 6.1616681 14.181133
-12.599337 5.9850531 13.997241
-13.177199 5.8308833 13.821538
-13.73869 5.6592588 13.657932
-14.30812 5.4994924 13.482739
-14.924628 5.3045456 13.26778
5.3084282 5.3485659 15.767792
4.5446076 5.3123785 16.103089
3.7345538 5.3306702 16.34151
3.0271531 5.3772007 16.508939
2.376466 5.4107835 16.624867
1.7370293 5.422439 16.715292
1.1176728 5.4577062 16.761532
0.49810301 5.4936116 16.809129
-0.13473613 5.5501146 16.835372
-0.80935041 5.5741179 16.84569
-1.4954568 5.5977645 16.823198
-2.1716816 5.6211965 16.761148
-2.8394347 5.6376537 16.68673
-3.4986717 5.6559951 16.60434
-4.1648647 5.6677913 16.520007
-4.900826 5.6971234 16.388624
-5.6405217 5.681866 16.291853
-6.4253801 5.6620355 16.193994
-7.2883741 5.6574131 16.05611
-8.1684166 5.6564493 15.894222
-9.0122561 5.6329797 15.720436
-9.8076516 5.6038778 15.515702
-10.597181 5.5610438 15.301104
-11.275265 5.5471423 15.073434
-11.910352 5.4148275 14.862548
-12.543004 5.276951 14.639081
-13.147136 5.1554412 14.426909
-13.748169 5.0494857 14.215939
-14.333334 4.9799035 14.003601
-14.973392 4.8506758 13.720424
5.3487596 4.3569353 16.381737
4.583979 4.3385126 16.781762
3.7830026 4.3177948 17.099948
3.0915569 4.3452776 17.278643
2.4247269 4.3825961 17.414144
1.7872292 4.3919618 17.506038
1.1386173 4.4025331 17.604021
0.4915319 4.436328 17.678836
-0.16451373 4.4648932 17.746052
-0.82569877 4.4971301 17.799945
-1.509573 4.5387437 17.768112
-2.1899542 4.5589489 17.732311
-2.8687667 4.578784 17.672828
-3.5288799 4.5952488 17.593667
-4.1897167 4.6115373 17.509907
-4.8941453 4.6297075 17.412896
-5.6257923 4.6598149 17.277173
-6.4005108 4.6614729 17.149812
-7.24494 4.6718633 17.002465
-8.115177 4.6899738 16.807437
-8.9713118 4.710049 16.544751
-9.7593119 4.6840681 16.325104
-10.501718 4.6790444 16.060135
-11.169535 4.6785417 15.799636
-11.823506 4.6862052 15.534795
-12.469232 4.5962156 15.283291
-13.117314 4.5364642 15.022923
-13.742141 4.4814876 14.761168
-14.344674 4.4264104 14.512055
-14.969317 4.3719723 14.14595
5.3945173 3.4353648 16.932285
4.6261543 3.3862609 17.376427
3.8335185 3.3585677 17.773647
3.1556703 3.3623453 17.993945
2.4905135 3.3836112 18.167425
1.8209703 3.4127434 18.286748
1.1444365 3.4122582 18.40525
0.47140991 3.413792 18.519946
-0.19103562 3.4333373 18.609191
-0.84879725 3.4635252 18.673518
-1.5217435 3.4981899 18.673401
-2.1998379 3.538535 18.637108
-2.8780419 3.5745343 18.583119
-3.5528271 3.5893472 18.525634
-4.2182747 3.605748 18.448101
-4.8983046 3.6220337 18.352713
-5.5976625 3.6773867 18.206833
-6.3594906 3.7038235 18.062426
-7.1731512 3.7312385 17.872031
-8.010463 3.7702277 17.616633
-8.8585951 3.8044431 17.346341
-9.6589832 3.8338135 17.057853
-10.377195 3.8470774 16.771076
-11.079533 3.883838 16.482185
-11.751534 3.9293839 16.199908
-12.411514 3.9843217 15.896742
-13.066615 3.9680314 15.592933
-13.716325 3.9449797 15.29165
-14.312526 3.9285381 14.952461
-14.93118 3.9008053 14.539595
5.3953035 2.5712174 17.404372
4.6467206 2.4900167 17.890496
3.8690847 2.4170103 18.374681
3.204374 2.4008571 18.679655
2.5081141 2.4204254 18.893296
1.8188792 2.4293092 19.072147
1.1462059 2.4259801 19.20032
0.46979609 2.4253446 19.318899
-0.2082416 2.4194855 19.438831
-0.87838103 2.4341065 19.528524
-1.5400191 2.4704923 19.534882
-2.2135205 2.5021432 19.519901
-2.88679 2.5374192 19.489734
-3.5564517 2.5818773 19.42309
-4.2219611 2.6274169 19.337081
-4.9092101 2.6857798 19.222432
-5.5733279 2.7501844 19.087695
-6.2721538 2.8276953 18.863015
-7.0643135 2.8819888 18.616339
-7.8922332 2.9491856 18.343763
-8.7190517 3.0359143 18.018715
-9.5173963 3.1149501 17.695897
-10.281471 3.1922748 17.36732
-10.983894 3.2503324 17.061993
-11.665969 3.3180753 16.735874
-12.338042 3.3913545 16.416507
-12.984347 3.4541582 16.087713
-13.634108 3.4819842 15.725386
-14.235084 3.4722655 15.340793
-14.900367 3.4483015 14.890338
5.4083489 1.6989433 17.849309
4.626527 1.600269 18.394086
3.8311465 1.535199 18.905721
3.1734519 1.4960027 19.280741
2.5138697 1.4417713 19.617093
1.8205406 1.4421949 19.832635
1.1356487 1.4373741 19.981018
0.46315597 1.4292602 20.122042
-0.2151286 1.4237013 20.241818
-0.89464284 1.4207984 20.350052
-1.5590173 1.4371314 20.400873
-2.2265361 1.4980206 20.364419
-2.8840576 1.5542094 20.317438
-3.5372993 1.6189189 20.25036
-4.2001024 1.7088817 20.146556
-4.8751258 1.8105558 19.999768
-5.5288275 1.9233217 19.812282
-6.2062724 2.0605682 19.565959
-6.9483504 2.2049077 19.253474
-7.7605104 2.3009533 18.945966
-8.5838875 2.3878595 18.61671
-9.3555163 2.4720253 18.27807
-10.119314 2.5755894 17.919927
-10.867141 2.6706228 17.568469
-11.561963 2.7363634 17.234659
-12.242354 2.8136399 16.901428
-12.88786 2.9028357 16.542643
-13.521623 2.9975772 16.146337
-14.158613 3.012054 15.723742
-14.842698 2.9845824 15.249978
5.4018205 0.86457511 18.276244
4.6030514 0.75441516 18.868451
3.7798428 0.66820427 19.422836
3.1289609 0.61368288 19.805064
2.4588814 0.57481363 20.175851
1.7960818 0.51419357 20.500377
1.1306204 0.47458222 20.708964
0.45576001 0.45182779 20.871687
-0.22013151 0.45976114 21.011442
-0.88858029 0.48672907 21.097453
-1.5440899 0.52700053 21.152229
-2.2083549 0.5969117 21.122811
-2.8593477 0.67708753 21.051993
-3.5198192 0.79193255 20.958929
-4.1791862 0.92670506 20.812085
-4.83541 1.0675969 20.633389
-5.4895812 1.2155765 20.424592
-6.1540992 1.3688808 20.177954
-6.8369207 1.5224044 19.871639
-7.6058383 1.6681077 19.523093
-8.4083518 1.7678783 19.167236
-9.1767719 1.8604392 18.817568
-9.9442841 1.9670102 18.458863
-10.711053 2.0713612 18.095437
-11.458882 2.1595707 17.73246
-12.13118 2.2507906 17.359668
-12.766688 2.3708883 16.976959
-13.415877 2.4700184 16.545256
-14.05498 2.5551942 16.097786
-14.760279 2.5375392 15.563362
5.3736359 0.10176989 18.652847
4.5623575 -0.038625502 19.27339
3.7454941 -0.17401632 19.883443
3.0872465 -0.24016028 20.302948
2.4076784 -0.28699811 20.683208
1.7394371 -0.32902129 21.051513
1.0870551 -0.37814876 21.324044
0.4394019 -0.39517831 21.502811
-0.21619135 -0.39486185 21.660881
-0.86686981 -0.35149948 21.753931
-1.5233546 -0.26056619 21.78789
-2.1959668 -0.16058555 21.770293
-2.8685277 -0.040452609 21.694113
-3.5073745 0.099098502 21.538805
-4.1565728 0.23940987 21.36125
-4.8023676 0.38496615 21.172836
-5.4336657 0.5414431 20.958937
-6.0789813 0.71250753 20.67776
-6.7285842 0.88220384 20.392009
-7.4680312 1.0528078 20.041667
-8.24249 1.1933603 19.660175
-9.0185197 1.2946349 19.30368
-9.7839014 1.4094073 18.935032
-10.553069 1.5261419 18.553649
-11.316406 1.6589105 18.128699
-12.005263 1.7935059 17.714312
-12.642038 1.9037281 17.316588
-13.304083 1.999922 16.865258
-13.972634 2.0587415 16.36984
-14.685224 2.1024467 15.822559
5.3287011 -0.70663672 18.974384
4.5038381 -0.79816619 19.621718
3.7093754 -0.92281854 20.241574
3.0429971 -1.020596 20.707573
2.3672808 -1.0848855 21.132083
1.6975961 -1.102634 21.49601
1.0433788 -1.1256019 21.83087
0.40249785 -1.1287076 22.02428
-0.2464506 -1.0753275 22.166111
-0.88996363 -1.009233 22.264534
-1.5337884 -0.93141224 22.330659
-2.1914881 -0.83720447 22.340231
-2.8459524 -0.70913144 22.224225
-3.4739037 -0.56245946 22.04452
-4.1153604 -0.41165463 21.852231
-4.7621704 -0.25088313 21.641448
-5.367555 -0.083776468 21.394499
-6.000266 0.09904797 21.119297
-6.6495354 0.2858898 20.817431
-7.3369462 0.47244341 20.481012
-8.0859131 0.64300026 20.090549
-8.8556185 0.78148431 19.715092
[...]
POINT_DATA 900
VECTORS normals float
0.18501655 0.57459458 0.79725149
0.15239101 0.60055212 0.78492938
0.11891764 0.62089947 0.77481768
0.096056122 0.63114171 0.76969693
0.070859505 0.64429302 0.76148896
0.052854666 0.65499262 0.75378449
0.030218495 0.6660734 0.74527382
0.014129534 0.67317074 0.73935209
-0.0074693964 0.68290822 0.73046599
-0.029863341 0.68814191 0.72496131
-0.052883828 0.69435264 0.71768915
-0.07009156 0.69629168 0.71432841
-0.0897789 0.6987098 0.70974951
-0.097267201 0.6998791 0.70760747
-0.10680975 0.70050529 0.70560897
-0.11595276 0.70099849 0.70367327
-0.1236767 0.70233795 0.70101746
-0.12969254 0.7026476 0.69961861
-0.14024718 0.70236494 0.69786404
-0.15567397 0.70534992 0.69155413
-0.18127464 0.70787714 0.68267816
-0.21152067 0.71078253 0.67085557
-0.24915591 0.7095363 0.65915064
-0.28866732 0.70503842 0.64775922
-0.3303149 0.69683854 0.63663814
-0.35658897 0.69291384 0.62666954
-0.38713174 0.68614665 0.61589917
-0.42074957 0.67771271 0.60305496
-0.46388207 0.65968095 0.59129897
-0.50414951 0.64046674 0.57934068
0.23892001 0.5465312 0.80263371
0.19744739 0.57610317 0.79317064
0.15086031 0.59807779 0.78711125
0.12908997 0.61716035 0.7761758
0.096499962 0.63286569 0.76822443
0.079657819 0.63938534 0.76474899
0.057896301 0.64956552 0.75809805
0.033403408 0.66176724 0.74896484
0.016405265 0.66842144 0.74360181
-0.011340181 0.67723294 0.73568128
-0.03685085 0.68228064 0.73016104
-0.06077555 0.68722041 0.72390223
-0.076671675 0.68739535 0.72222509
-0.093415853 0.69021733 0.71754687
-0.10316958 0.69282737 0.713685
-0.11093455 0.69426658 0.71111704
-0.11756238 0.69535333 0.70898719
-0.12524819 0.69625561 0.70678216
-0.13438698 0.69755504 0.7038161
-0.14678715 0.69951583 0.6993791
-0.17662432 0.69981123 0.69214745
-0.20683404 0.69910119 0.68445395
-0.24688468 0.69378861 0.67653922
-0.28977041 0.68801433 0.66533404
-0.32960727 0.67922359 0.65575481
-0.35561985 0.67080041 0.6508159
-0.38144783 0.65956897 0.6476622
-0.41817839 0.65058442 0.63392961
-0.45795463 0.6400414 0.61694777
-0.5082023 0.62290466 0.59474381
0.28040909 0.53387676 0.7977132
0.25406348 0.55424662 0.79263007
0.19520603 0.58743955 0.78537213
0.16167965 0.60457453 0.77996752
0.13299656 0.61949289 0.77365398
0.11252936 0.6383991 0.76143531
0.088365371 0.64918944 0.75547643
0.058387086 0.66067964 0.74839385
0.034978706 0.66873033 0.74268179
0.01014996 0.67783712 0.73514204
-0.018993905 0.68168844 0.73139599
-0.043426222 0.68321005 0.72892948
-0.068230015 0.68665302 0.72377641
-0.085589024 0.68845731 0.72020903
-0.096316252 0.69021132 0.71716909
-0.10528483 0.69122372 0.71492998
-0.11328903 0.69326699 0.71172079
-0.12088454 0.69426936 0.70949065
-0.13227351 0.69221191 0.70946909
-0.14838645 0.69016475 0.70827543
-0.17785051 0.68580865 0.70571644
-0.20902312 0.67979137 0.70298864
-0.25149293 0.67281998 0.6957475
-0.29739268 0.66247415 0.68752134
-0.33466386 0.65113775 0.68118994
-0.36334864 0.64608883 0.67122797
-0.38754441 0.63621165 0.66711623
-0.41576059 0.62821986 0.65763435
-0.44768653 0.62126991 0.64311778
-0.49999336 0.60278932 0.62181322
0.31535034 0.52857179 0.78814087
0.29095769 0.54924722 0.78337163
0.25260716 0.57066203 0.78136705
0.19805989 0.6030613 0.77271556
0.17153949 0.61901288 0.76641846
0.14669419 0.62941587 0.76309664
0.11833471 0.64783438 0.75253406
0.083165839 0.65672428 0.74953096
0.053252683 0.66652581 0.74357749
0.018682506 0.67770175 0.73509952
-0.0085447374 0.67645259 0.73643661
-0.036146464 0.67953132 0.73275549
-0.06468761 0.68268465 0.7278442
-0.077502994 0.68337116 0.72594569
-0.090537791 0.68638895 0.72157683
-0.098840308 0.68772547 0.71921086
-0.10973353 0.68883879 0.71656101
-0.122228 0.68767835 0.71565271
-0.13525324 0.68499537 0.71588261
-0.16329799 0.67561878 0.71893882
-0.19379095 0.665769 0.72055305
-0.22028595 0.65378066 0.72390949
-0.25478893 0.64408817 0.72127182
-0.29256103 0.63728973 0.71293046
-0.33223969 0.62609222 0.70542564
-0.36129156 0.62151708 0.69511505
-0.38520921 0.61381439 0.68909053
-0.41728823 0.60723327 0.67612003
-0.44708255 0.59836054 0.66489237
-0.49901978 0.58304339 0.64112375
0.35044174 0.52105488 0.77826242
0.32675452 0.54318587 0.77342135
0.28860264 0.56189096 0.77523356
0.24912131 0.58128401 0.77462731
0.20536625 0.60566534 0.76876147
0.17271232 0.61950619 0.76575618
0.14057753 0.63345567 0.76090201
0.10217311 0.64453003 0.75772139
0.066847557 0.65836536 0.74972425
0.038472159 0.66129738 0.74913662
0.0077221435 0.6677021 0.74438852
-0.028472371 0.67207953 0.73993137
-0.05567638 0.67653981 0.73429832
-0.071675709 0.67825064 0.73132664
-0.082564669 0.67956623 0.72895323
-0.096551678 0.67992629 0.72689615
-0.11155307 0.68034118 0.72435612
-0.12903514 0.6776465 0.7239787
-0.1498833 0.67081416 0.7263218
-0.1730263 0.66200874 0.72925052
-0.20330591 0.65078765 0.7315341
-0.23286905 0.63630055 0.7354547
-0.26590001 0.6193994 0.73867555
-0.29784416 0.61060222 0.7337941
-0.32983227 0.6049159 0.72476715
-0.36547516 0.59739501 0.71382568
-0.39145804 0.58899836 0.70699472
-0.41795449 0.58534663 0.69475418
-0.45501543 0.56794798 0.68585425
-0.50562025 0.55038975 0.66439393
0.37942681 0.49933669 0.77890832
0.35490476 0.5210282 0.77625526
0.32372648 0.53798658 0.77831331
0.28090621 0.55922159 0.77997623
0.23767632 0.58232875 0.77743372
0.1952224 0.6028062 0.77363615
0.16300999 0.61597575 0.770715
0.11713725 0.63400528 0.76440576
0.082362485 0.64349152 0.76100926
0.055011941 0.65016843 0.75779595
0.020464113 0.6543381 0.75592518
-0.016677097 0.66348558 0.74800318
-0.046570448 0.66774877 0.74292851
-0.064423127 0.67179282 0.73793229
-0.078012751 0.67435474 0.73427495
-0.095207068 0.67403993 0.73253381
-0.11357329 0.67267015 0.73117438
-0.13707091 0.66741693 0.73196052
-0.1633083 0.65814114 0.73496982
-0.18957904 0.64534412 0.73999375
-0.22646615 0.63064185 0.7422964
-0.25542091 0.61891088 0.74277149
-0.28148356 0.60735532 0.74289065
-0.30689731 0.59372175 0.74384711
-0.33347799 0.58142962 0.74211322
-0.36209115 0.57339508 0.73492045
-0.39322975 0.56712963 0.72369492
-0.42932567 0.55393313 0.7133285
-0.46674365 0.53720823 0.70253661
-0.51083338 0.51548223 0.68798788
0.40923316 0.45935278 0.78836746
0.38652707 0.48350797 0.7853769
0.35956003 0.4985327 0.78878497
0.3209052 0.52349895 0.78928366
0.2759405 0.54814668 0.78955181
0.22889427 0.57150018 0.78803233
0.18593808 0.59834461 0.77936561
0.13743191 0.61469025 0.77670352
0.098849886 0.63096595 0.76948728
0.069782858 0.63671554 0.76793468
0.03288997 0.64285341 0.76528279
-0.013215585 0.64947735 0.76026609
-0.036189641 0.65439452 0.75528678
-0.055976397 0.65645605 0.75228458
-0.072949952 0.65843928 0.74909013
-0.095313617 0.65851993 0.74650305
-0.120082 0.65844862 0.74298434
-0.1421629 0.65581768 0.74141276
-0.17085066 0.64307879 0.74649831
-0.20753329 0.6226561 0.75447287
-0.23820423 0.61099006 0.75495026
-0.26566961 0.59949688 0.75499878
-0.28972071 0.58673622 0.75617624
-0.31448837 0.57294309 0.7568575
-0.34080798 0.55833159 0.75638334
-0.37216027 0.54697502 0.74987669
-0.40363356 0.53984942 0.73867622
-0.44054839 0.52667182 0.72700337
-0.47546813 0.50199886 0.72244529
-0.52925837 0.47560141 0.70262997
0.46293259 0.40156762 0.79021317
0.43347284 0.42767551 0.7932181
0.40541054 0.45472246 0.7930131
0.36269508 0.4836076 0.79660277
0.32059777 0.51838667 0.79277508
0.28067764 0.54166473 0.79235054
0.22190214 0.57172749 0.78986525
0.16389926 0.59935521 0.78352432
0.12418939 0.61202271 0.78102829
0.08004051 0.62553763 0.77607744
0.03854817 0.63241533 0.77366976
-0.0015809291 0.6404697 0.76798181
-0.025468544 0.63790585 0.76969311
-0.054250578 0.64089462 0.76570945
-0.074973124 0.64005307 0.76466404
-0.098803607 0.63594428 0.76538404
-0.12553189 0.63775587 0.75994026
-0.15292784 0.63444608 0.75768809
-0.18431329 0.62470365 0.75879771
-0.21539127 0.60846047 0.76379477
-0.24465869 0.59134116 0.76841249
-0.26777106 0.58132085 0.76835196
-0.29611469 0.56704528 0.76861938
-0.32183637 0.56042031 0.76311888
-0.35157058 0.54442468 0.76157724
-0.38087688 0.52126302 0.76368689
-0.41763183 0.50301957 0.75667362
-0.45538656 0.48520521 0.74645762
-0.49637846 0.46121983 0.73544863
-0.54283041 0.42769137 0.72278299
0.50095083 0.35223584 0.79055561
0.48056512 0.38364132 0.78859147
0.44387588 0.4210885 0.79098589
0.40437337 0.44369743 0.79975919
0.36272623 0.47800807 0.79996123
0.33065853 0.50381914 0.79801705
0.27177657 0.53870617 0.79745417
0.21410213 0.56136248 0.79939505
0.15194564 0.59889999 0.78627688
0.10092945 0.61382628 0.78296267
0.053704076 0.62138798 0.78166031
0.002804619 0.6263066 0.77957179
-0.031529617 0.62983694 0.77608718
-0.058790338 0.62585168 0.7777232
-0.0761845 0.62391897 0.7777667
-0.10655492 0.61728856 0.77948758
-0.13774748 0.61841265 0.7736869
-0.1671134 0.61577509 0.7699962
-0.19644321 0.60786165 0.76935965
-0.22802835 0.59001624 0.77452173
-0.25615761 0.570325 0.78045671
-0.28584462 0.55174004 0.78350225
-0.31060242 0.54021098 0.78211139
-0.34337847 0.51953271 0.7824174
-0.37231978 0.50427473 0.77915658
-0.41010275 0.47638177 0.77773783
-0.43678189 0.46476094 0.77020702
-0.47485612 0.44307045 0.7603948
-0.50915223 0.41566136 0.75365088
-0.56239409 0.37270139 0.73811012
0.53951426 0.30853786 0.78340842
0.51957746 0.34730546 0.78065241
0.4881091 0.38045406 0.78549616
0.4494648 0.41133903 0.7929575
0.40526115 0.44158448 0.80047895
0.36257782 0.47240587 0.80334925
0.31065509 0.50152125 0.8074465
0.25766385 0.53384977 0.80536561
0.20560708 0.5583394 0.80373058
0.14215639 0.5851818 0.79834443
0.065470757 0.59931286 0.79783311
0.0072073177 0.6096596 0.79263058
-0.045527113 0.60876633 0.7920422
-0.071406515 0.60279491 0.79469453
-0.090763529 0.59918024 0.79545272
-0.12691261 0.58694969 0.79961444
-0.15554166 0.58691639 0.79456651
-0.18210037 0.58521947 0.79016304
-0.21010782 0.57993178 0.78710472
-0.24835225 0.55789491 0.79188031
-0.27419434 0.54590452 0.79171063
-0.30325296 0.52371544 0.79609031
-0.33500949 0.49991338 0.79865841
-0.3621237 0.48272679 0.79739656
-0.39580936 0.4600742 0.79477461
-0.42520068 0.43971968 0.79110744
-0.45677543 0.41125314 0.7888137
-0.49146272 0.39513354 0.77610172
-0.53709704 0.3588031 0.76340494
-0.57931426 0.32828506 0.74607232
0.58222327 0.26531325 0.76852127
0.55464242 0.2999865 0.77613136
0.52457337 0.33248742 0.78375691
0.48743641 0.36313107 0.79406648
0.45268266 0.38670797 0.80345215
0.39331262 0.43170437 0.81174905
0.33896729 0.45841379 0.82155826
0.28561315 0.47777586 0.8307559
0.22577106 0.51996379 0.82381132
0.16287369 0.54719352 0.82100634
0.079082022 0.55583491 0.82752256
0.0021453453 0.5616457 0.82737507
-0.053288716 0.57457821 0.81671304
-0.084733434 0.57157074 0.81616612
-0.11349633 0.56504194 0.81721857
-0.14495505 0.55669334 0.81797345
-0.17376535 0.55842274 0.81115328
-0.21420893 0.54660158 0.8095315
-0.2327498 0.54114946 0.80807475
-0.26927095 0.52407404 0.80798488
-0.29564068 0.51180673 0.80662907
-0.32744795 0.48836612 0.80887352
-0.35504234 0.46962406 0.80833049
-0.38845967 0.4382754 0.81056385
-0.41986375 0.41172138 0.80882627
-0.45365722 0.3859852 0.80324999
-0.48070958 0.36708772 0.79634472
-0.51865441 0.34536256 0.78212678
-0.56043837 0.31534837 0.76580953
-0.60440656 0.27573433 0.74743782
0.60423936 0.21917785 0.76606519
0.57680863 0.25557922 0.77586794
0.54570136 0.27671557 0.79097315
0.51815669 0.29805965 0.80166956
0.47215668 0.33730581 0.81442793
0.41981453 0.3670724 0.83006844
0.3656382 0.40212928 0.839405
0.3053609 0.43756473 0.84574927
0.23858418 0.4679466 0.85094275
0.15887424 0.49539604 0.85401507
0.063865879 0.49974776 0.86381325
-0.0077312816 0.50902997 0.86071407
-0.054199716 0.52815844 0.84741434
-0.095778164 0.52495247 0.8457254
-0.13241101 0.52558806 0.84037166
-0.16810193 0.52374949 0.83512167
-0.19581724 0.52103555 0.83076926
-0.23476179 0.50733386 0.82915575
-0.2552544 0.50658219 0.82354094
-0.28297884 0.4957247 0.82108465
-0.31450158 0.4772374 0.82056884
-0.34356982 0.45828102 0.81971842
-0.37305123 0.44071306 0.81645868
-0.40422183 0.41321583 0.81600086
-0.43985513 0.38367845 0.81198419
-0.47325768 0.3504019 0.80823615
-0.50581118 0.32150989 0.80049137
-0.54278898 0.29112978 0.78779666
-0.58468783 0.25590213 0.7698404
-0.62792319 0.21990234 0.74656241
0.6280434 0.15204929 0.76317921
0.6053014 0.17767911 0.77591259
0.57756681 0.20471499 0.79025841
0.5529789 0.21345397 0.80538918
0.49739897 0.262694 0.82679268
0.43313015 0.31812795 0.84332252
0.37730208 0.35279486 0.85625868
0.32336751 0.38136935 0.86602014
0.24475911 0.4175542 0.87506655
0.17060947 0.44546326 0.87889413
0.075001211 0.46111236 0.88416639
0.0032585157 0.47587395 0.87950746
-0.057418584 0.47685645 0.87710378
-0.095390787 0.48311457 0.87034528
-0.14364346 0.48209811 0.86426151
-0.17773418 0.48887079 0.85405849
-0.20607854 0.48774487 0.84831396
-0.24200371 0.48175443 0.84222733
-0.27644675 0.47263767 0.83677406
-0.30679478 0.45734299 0.83469417
-0.34454082 0.43374304 0.83256147
-0.37063132 0.41690849 0.82995165
-0.39590526 0.40056053 0.82632336
-0.42415047 0.37777036 0.82303459
-0.45887541 0.34756771 0.81769801
-0.49290237 0.31265725 0.81196841
-0.53448899 0.26666927 0.80200313
-0.56963205 0.22951789 0.78920268
-0.60234643 0.20408512 0.77170464
-0.62854538 0.18496212 0.75545994
0.63984645 0.099783814 0.76199719
0.61972368 0.11532477 0.77630069
0.59914814 0.13531357 0.78912087
0.56658002 0.16121289 0.80808259
0.52490646 0.1860705 0.83057268
0.45864557 0.25355051 0.85167857
0.39257914 0.29292263 0.8718245
0.33863781 0.31573207 0.88636206
0.26396425 0.35132491 0.89827261
0.18869297 0.36488345 0.91173188
0.085898325 0.41193952 0.90715341
0.0038563013 0.43052865 0.90256868
-0.053885299 0.44899629 0.89190734
-0.10061238 0.4498401 0.88742382
-0.15453231 0.44894395 0.88009607
-0.18923035 0.44495398 0.87533298
-0.21958162 0.44286413 0.86928434
-0.25697279 0.44387163 0.85845382
-0.29147944 0.43839519 0.8502055
-0.32884653 0.41783553 0.84691997
-0.36399613 0.39383966 0.84403622
-0.39254945 0.38202714 0.83663624
-0.42287786 0.36311754 0.83025295
-0.45007339 0.33797507 0.82656324
-0.48228505 0.30708759 0.82042571
-0.50886229 0.26595292 0.81873574
-0.55070399 0.21631677 0.80618371
-0.58899582 0.18055698 0.78770749
-0.61226811 0.1583671 0.77462741
-0.63537908 0.1498411 0.75752298
0.64369429 0.063964338 0.76260489
0.62568387 0.07125345 0.77681571
0.60564734 0.082267015 0.79146916
0.57984911 0.089949578 0.80974322
0.53216626 0.13710226 0.83546516
0.47899822 0.17257783 0.86068437
0.40201748 0.21036712 0.89113838
0.34168589 0.22706621 0.91197132
0.28851466 0.25575485 0.92268562
0.20919284 0.28647093 0.93497207
0.10855807 0.31792892 0.94187916
0.036316073 0.36975054 0.92842107
-0.041330895 0.41090525 0.91074071
-0.10261606 0.42340532 0.90010992
-0.15553733 0.42586003 0.89132002
-0.19518508 0.41220627 0.88993751
-0.22680446 0.40765339 0.88452159
-0.27257012 0.39951918 0.87526565
-0.30447658 0.39501101 0.86675274
-0.34143796 0.38644248 0.85678605
-0.38325523 0.36797475 0.84717767
-0.40686275 0.35125376 0.84325767
-0.43386229 0.33421125 0.83669968
-0.47322795 0.30488331 0.82649953
-0.51565178 0.25525354 0.81789294
-0.53959793 0.21776184 0.81327354
-0.57279344 0.17575157 0.80063666
-0.60012737 0.15025553 0.78566559
-0.62153292 0.13466381 0.77172695
-0.63828802 0.12718641 0.75921804
0.64765706 0.035741478 0.76109321
0.62993547 0.034889772 0.77586339
0.60747931 0.027939404 0.79384398
0.58306441 0.035414296 0.81165369
0.54524623 0.067350674 0.83556594
0.48585764 0.10351141 0.86788694
0.4183209 0.12469506 0.89969927
0.34904085 0.1508619 0.92488441
0.29995479 0.16620867 0.93936244
0.23477724 0.18863537 0.95357032
0.14043037 0.2269634 0.96372554
0.062176062 0.27969986 0.95807209
-0.013654063 0.33403558 0.94246156
-0.093825405 0.35303346 0.93089429
-0.16646057 0.36664976 0.91534629
-0.21083326 0.37526205 0.9026227
-0.24958587 0.35978869 0.89903225
-0.28627378 0.34445379 0.89409111
-0.32406298 0.33225249 0.88577168
-0.35913077 0.33456149 0.87125983
-0.39851419 0.32023558 0.85943913
-0.4257512 0.30452036 0.85205825
-0.45905473 0.27765655 0.84390497
-0.49743262 0.25234709 0.829989
-0.52743689 0.22630693 0.81889896
-0.55913099 0.19284103 0.80634042
-0.58701714 0.14806534 0.7959193
-0.61131733 0.12288991 0.7817859
-0.62439487 0.11126343 0.7731439
-0.63964397 0.10777537 0.76107822
0.64644613 0.0040960254 0.76294864
0.63183722 0.0027145781 0.77509635
0.60308739 -0.0088321476 0.79762623
0.57809511 -0.015716669 0.81581801
0.54925523 -0.00030961427 0.83565459
0.49633602 0.016640538 0.86797099
0.42538947 0.049229883 0.90367042
0.35897039 0.077142322 0.93015554
0.3021638 0.089333922 0.94906084
0.2520014 0.10519622 0.96199223
0.17242766 0.13561081 0.97564256
0.083584354 0.19646457 0.97694183
-0.0052476506 0.23649706 0.97161803
-0.094285327 0.25127205 0.96331336
-0.17258366 0.26581116 0.94845101
-0.22760556 0.2774255 0.93339745
-0.26954059 0.29979681 0.91513373
-0.31710782 0.26833641 0.9096363
-0.35366178 0.24942679 0.90150409
-0.37992356 0.24808098 0.8911307
-0.42201574 0.23799213 0.87479281
-0.4517449 0.22824249 0.8624569
-0.49052698 0.19579716 0.84914472
-0.5181902 0.18176023 0.83572851
-0.54788527 0.16341196 0.82043784
-0.57453927 0.14740182 0.80509461
-0.60098228 0.11804157 0.79049762
-0.62080058 0.093949262 0.77831881
-0.62661881 0.084578309 0.77472277
-0.64108109 0.079488379 0.76334568
0.64527962 -0.01954966 0.76369629
0.62803034 -0.029423481 0.7776324
0.59373266 -0.045874694 0.80335362
0.57146228 -0.051576564 0.81900593
0.54617278 -0.053786736 0.83594395
0.50074548 -0.045423705 0.86440191
0.43532629 -0.02184379 0.90000771
0.36608844 0.0041529288 0.9305708
0.3026329 0.019339384 0.95291097
0.25199782 0.030190353 0.96725676
0.18927924 0.038341651 0.98117444
0.10746722 0.074511733 0.99141253
0.013391674 0.099899187 0.99490744
-0.085389436 0.13138899 0.98764648
-0.16880675 0.14514194 0.97490415
-0.23423968 0.17615504 0.95608638
-0.29817568 0.19345859 0.93470051
-0.33738014 0.1870062 0.92260681
-0.37420171 0.18665494 0.90836832
-0.40522676 0.17332269 0.89763607
-0.44390802 0.16335123 0.88105734
-0.47875625 0.15475781 0.86420048
-0.507842 0.14001724 0.8499951
-0.53509138 0.12778898 0.83507317
-0.56348347 0.10465333 0.81947182
-0.59225346 0.082281357 0.80153953
-0.6078145 0.076922714 0.7903445
-0.6254076 0.06309525 0.77774309
-0.63227271 0.061795877 0.77227747
-0.64256518 0.051924047 0.76446967
0.64287043 -0.043823001 0.76472031
0.62121344 -0.056608946 0.78159407
0.58823772 -0.071918718 0.80548375
0.56367174 -0.081404319 0.8219778
0.54226664 -0.083097373 0.83608715
0.50708727 -0.08133435 0.85804849
0.44248304 -0.063470886 0.89452792
0.37005848 -0.04385312 0.92797286
0.30261355 -0.020898346 0.9528842
0.25238404 -0.015070927 0.96750977
0.19363014 -0.013007338 0.98098837
0.11341672 -0.0096891126 0.99350026
0.024912086 0.0050102409 0.99967709
-0.084872912 0.01801558 0.9962289
-0.1629475 0.030302888 0.98616928
-0.23655465 0.056349528 0.9699828
-0.29407912 0.071287911 0.95311883
-0.34914385 0.089982367 0.93273884
-0.38482521 0.11664737 0.91558886
-0.41584193 0.10317653 0.90356521
-0.45294912 0.10355627 0.88550166
-0.49428024 0.09022448 0.86460776
-0.5248936 0.077931727 0.84759268
-0.54805445 0.068657948 0.83362006
-0.58080571 0.048893495 0.81257255
-0.60156437 0.038609944 0.79789071
-0.61531452 0.038803008 0.78732609
-0.63021966 0.030343594 0.77582372
-0.63902411 0.030771257 0.76857096
-0.64400448 0.024500311 0.7646293
0.63419867 -0.072571788 0.7697567
0.61302293 -0.090196845 0.78489962
0.58389811 -0.096952917 0.80601683
0.55982942 -0.1088842 0.8214227
0.53575436 -0.11011282 0.83716332
0.50499565 -0.11582281 0.85531542
0.45047407 -0.1145912 0.88540497
0.37835879 -0.092139967 0.92106181
0.31036506 -0.08363996 0.94693077
0.24952173 -0.06768406 0.96600092
0.19150702 -0.060468193 0.9796268
0.1145837 -0.061528664 0.99150633
0.029382322 -0.063365743 0.99755775
-0.063287581 -0.05904544 0.99624712
-0.16077247 -0.036788746 0.98630563
-0.22957601 -0.028960653 0.97285977
-0.28973363 -0.023766955 0.95681218
-0.33657834 0.0069313834 0.94162996
-0.38454398 0.021424182 0.92285803
-0.43442135 0.031978637 0.90014191
-0.46717632 0.041757043 0.88317758