# vtk DataFile Version 2.0
Grain example
ASCII
DATASET UNSTRUCTURED_GRID
POINTS 900 float
-11.103404 7.8913242 12.925637
-11.489974 8.1395292 12.44719
-11.776019 8.3299278 12.036404
-12.055626 8.4824145 11.661125
-12.336603 8.6419817 11.272986
-12.64086 8.7779734 10.868048
-12.963854 8.8955427 10.471685
-13.289601 9.01533 10.070602
-13.614766 9.1297115 9.6769182
-13.942919 9.228603 9.2571082
-14.272399 9.303384 8.8296779
-14.570037 9.360914 8.3188362
-14.882814 9.3818348 7.778318
-15.198014 9.3649636 7.2727452
-15.510774 9.3331385 6.7833554
-15.80455 9.2884885 6.3233078
-16.078055 9.2475607 5.8056973
-16.320987 9.1859417 5.2725272
-16.510268 9.1234749 4.7425367
-16.618427 9.1073464 4.2641236
-16.647246 9.1397966 3.7917426
-16.674828 9.1751116 3.3242498
-16.691333 9.1754561 2.8320611
-16.705255 9.1710448 2.3485272
-16.717207 9.1756319 1.8474337
-16.726486 9.1696081 1.3616067
-16.742161 9.1666655 0.78210677
-16.681892 9.1715739 0.12395213
-16.581954 9.1789196 -0.5594937
-16.455355 9.1753979 -1.2424266
-11.343449 7.1856614 13.556863
-11.746449 7.4394281 13.074014
-12.159038 7.6732645 12.585719
-12.483122 7.8441679 12.163685
-12.8108 7.9857602 11.757906
-13.134519 8.1405369 11.333539
-13.464566 8.2824925 10.903597
-13.78519 8.4046523 10.498725
-14.115392 8.5140162 10.079852
-14.438906 8.6250287 9.6315473
-14.769754 8.7118441 9.158584
-15.090396 8.7597062 8.6541973
-15.424315 8.7686997 8.1001359
-15.748212 8.7644317 7.5575435
-16.061679 8.7380475 7.0608008
-16.36199 8.7019071 6.5898355
-16.645396 8.6319541 6.0638516
-16.870912 8.5856273 5.4840077
-17.044081 8.5373555 4.9135895
-17.167784 8.5045456 4.4059863
-17.232126 8.4917456 3.936884
-17.254698 8.4853177 3.4492434
-17.26907 8.4829428 2.952695
-17.287097 8.4836543 2.4609881
-17.296351 8.4801009 1.9629094
-17.306334 8.480537 1.4714309
-17.319193 8.4800206 0.91260255
-17.280584 8.4839254 0.25091611
-17.142774 8.4778866 -0.45163995
-16.991609 8.4547515 -1.1652232
-11.500427 6.528859 14.141681
-11.99545 6.7393014 13.676867
-12.454879 6.984339 13.18689
-12.909756 7.1895108 12.683954
-13.267757 7.3340965 12.251915
-13.605872 7.4768266 11.830764
-13.938045 7.6441392 11.369285
-14.265233 7.7955039 10.897976
-14.584686 7.9190885 10.446449
-14.917241 8.0270647 9.9841102
-15.262462 8.1024104 9.4989508
-15.614883 8.1328355 8.9790982
-15.962128 8.1440548 8.4358045
-16.292288 8.1511338 7.8706801
-16.605423 8.1450564 7.3259859
-16.894335 8.1069304 6.7871694
-17.164422 8.0458263 6.2197775
-17.390758 7.9959362 5.6421044
-17.568887 7.9443744 5.0657663
-17.701279 7.9017291 4.5328033
-17.756446 7.8611882 4.0345358
-17.80326 7.8223085 3.5561355
-17.848911 7.7808485 3.0735266
-17.865786 7.7808592 2.5807475
-17.881682 7.7782679 2.0837075
-17.890685 7.7766849 1.5889411
-17.901862 7.7751209 1.0612631
-17.865269 7.7597682 0.36724377
-17.721574 7.7439446 -0.35115033
-17.529657 7.7206157 -1.0779471
-11.594883 5.9976962 14.642771
-12.131383 6.1894474 14.18823
-12.691132 6.3765539 13.707565
-13.212463 6.5814496 13.198479
-13.647814 6.7509182 12.703102
-13.9982 6.8887366 12.260414
-14.345432 7.0344253 11.782004
-14.687926 7.1868175 11.302911
-15.035501 7.3132243 10.829121
-15.39375 7.4111121 10.339546
-15.769874 7.4617851 9.8269123
-16.130647 7.4907311 9.3120633
-16.468458 7.529355 8.7252643
-16.79653 7.5670357 8.1213437
-17.109328 7.5611574 7.5033088
-17.405292 7.5211934 6.9362512
-17.67629 7.4606329 6.3614993
-17.907708 7.4034062 5.7875171
-18.091641 7.3388795 5.2054087
-18.220548 7.2681722 4.6422576
-18.276795 7.2256723 4.1406257
-18.328447 7.1888954 3.6489434
-18.375574 7.1475885 3.1664642
-18.420201 7.110107 2.6905862
-18.465697 7.0690778 2.2087098
-18.472904 7.054177 1.7082354
-18.467678 7.0329263 1.1818394
-18.449793 7.0157528 0.48317706
-18.286592 7.0096884 -0.25000387
-18.057868 6.9825939 -0.9963165
-11.691793 5.4769736 15.099667
-12.261685 5.6562486 14.658285
-12.831177 5.8480885 14.160123
-13.401069 6.0372719 13.653393
-13.883335 6.2351551 13.127751
-14.297865 6.376576 12.640545
-14.678318 6.5088679 12.165581
-15.044151 6.6451299 11.686213
-15.40866 6.7674767 11.187814
-15.791273 6.8470429 10.649175
-16.176341 6.9071825 10.086073
-16.551688 6.953271 9.5249031
-16.90582 6.9765937 8.9439072
-17.256949 6.9763582 8.3402042
-17.591085 6.9632669 7.6837292
-17.908706 6.9284175 7.0824122
-18.181473 6.8703852 6.5035429
-18.411635 6.8014488 5.9182994
-18.60502 6.7109801 5.3248135
-18.735099 6.6395029 4.7602782
-18.796449 6.5944813 4.245807
-18.849549 6.5562826 3.7516283
-18.900326 6.5155481 3.2616029
-18.944332 6.4714847 2.7829748
-18.977294 6.4138782 2.2826754
-19.007351 6.3528458 1.7850925
-19.032624 6.2852467 1.2769516
-19.03274 6.2707191 0.61392257
-18.864232 6.2626044 -0.13860633
-18.581982 6.2247919 -0.91461396
-11.770606 4.9867244 15.471839
-12.358371 5.1634379 15.03079
-12.947272 5.3425784 14.558889
-13.527308 5.5288839 14.05877
-14.089902 5.7122612 13.55116
-14.544335 5.8801584 13.031052
-14.945947 6.0228166 12.526546
-15.322717 6.1610829 11.996361
-15.70625 6.2763067 11.455775
-16.10654 6.3597409 10.868853
-16.508945 6.4157866 10.301522
-16.917774 6.4571458 9.7295867
-17.295401 6.4485018 9.1259507
-17.655317 6.4349615 8.5156538
-17.995551 6.4232645 7.8691745
-18.327131 6.406553 7.2232501
-18.601707 6.3335782 6.611082
-18.839066 6.233996 6.0149885
-19.053783 6.1339818 5.4201122
-19.214039 6.04477 4.8643197
-19.291645 5.9952091 4.3408766
-19.356715 5.9374464 3.8539452
-19.417132 5.8693649 3.3501792
-19.450636 5.8075374 2.8509738
-19.482825 5.742433 2.3464071
-19.512113 5.681771 1.8495079
-19.53837 5.6144432 1.3417374
-19.567784 5.5578975 0.73705278
-19.427502 5.5121303 -0.015260933
-19.083452 5.4677217 -0.82975072
-11.843215 4.5325947 15.812994
-12.447274 4.7035146 15.383134
-13.041668 4.8779447 14.926444
-13.636262 5.0535238 14.449133
-14.225682 5.2435899 13.921733
-14.75748 5.4205663 13.371264
-15.1795 5.5674103 12.814677
-15.592908 5.689291 12.2458
-15.987842 5.7903294 11.692832
-16.400746 5.866907 11.105663
-16.812769 5.943824 10.502757
-17.222921 5.9658808 9.9107552
-17.614828 5.956669 9.284475
-17.996609 5.9383923 8.6725851
-18.366798 5.908461 8.0504121
-18.698545 5.8588699 7.3741301
-18.999117 5.7907521 6.7023343
-19.236616 5.6976192 6.0924318
-19.459015 5.5947201 5.4920811
-19.628967 5.5019063 4.9376304
-19.713455 5.4372752 4.4048095
-19.771894 5.3738916 3.9090577
-19.824653 5.2958254 3.3974619
-19.874698 5.2210881 2.8916576
-19.918341 5.1474949 2.3883118
-19.958913 5.0750923 1.8954071
-19.998393 4.9965598 1.3923586
-20.032307 4.9223173 0.8314376
-19.856036 4.855528 0.063474927
-19.52929 4.7686995 -0.74144882
-11.916821 4.0785041 16.154637
-12.520648 4.253691 15.722561
-13.145573 4.4364294 15.237104
-13.741133 4.6359328 14.718284
-14.33971 4.8271096 14.195029
-14.920051 5.0096395 13.641489
-15.425872 5.1175875 13.086469
-15.846796 5.218382 12.526773
-16.263883 5.3235056 11.937785
-16.696781 5.397744 11.336806
-17.112888 5.45044 10.717668
-17.526168 5.4911364 10.082826
-17.924161 5.4940973 9.4435963
-18.305359 5.4753684 8.8064333
-18.668892 5.4269887 8.1622098
-18.999356 5.378499 7.4960667
-19.308822 5.3236214 6.7964864
-19.57503 5.2279372 6.1552973
-19.814103 5.1098889 5.5364071
-19.997532 4.9953966 4.9691655
-20.103483 4.904647 4.4318323
-20.158903 4.8241115 3.9240738
-20.212156 4.7455992 3.4116898
-20.263926 4.6695906 2.9036153
-20.314424 4.5894424 2.3969247
-20.35604 4.5184936 1.906358
-20.401322 4.436612 1.4054084
-20.425425 4.3602391 0.89090451
-20.202029 4.2812953 0.11486796
-19.872122 4.1997117 -0.68921412
-11.996115 3.6626922 16.429973
-12.610607 3.8442458 15.959914
-13.238908 4.0292302 15.475079
-13.851281 4.2225505 14.967912
-14.457118 4.4146241 14.437852
-15.079782 4.5663856 13.90096
-15.637861 4.6847758 13.33229
-16.099005 4.7557508 12.772578
-16.523696 4.8498647 12.17274
-16.970314 4.9112881 11.524618
-17.402186 4.959018 10.895837
-17.817331 5.002124 10.260765
-18.217083 5.0166443 9.5915548
-18.594179 4.984253 8.9237361
-18.9643 4.9422103 8.2772485
-19.291312 4.8956801 7.614673
-19.609446 4.839994 6.9048107
-19.881724 4.7497039 6.214786
-20.131172 4.6328492 5.5806226
-20.315703 4.5128338 4.9876845
-20.42699 4.4113216 4.4482985
-20.512071 4.3159671 3.9378188
-20.578043 4.2269847 3.4232392
-20.642237 4.1395508 2.9195863
-20.707221 4.0514615 2.4065819
-20.752495 3.9730737 1.9114688
-20.785759 3.8951538 1.4099752
-20.799412 3.8138519 0.91270202
-20.536322 3.7294701 0.13917074
-20.200471 3.6424545 -0.66528385
-12.075302 3.2721654 16.662586
-12.700825 3.4531264 16.178308
-13.338776 3.6352292 15.689753
-13.970553 3.816098 15.198645
-14.600334 3.974718 14.656984
-15.236401 4.1236205 14.103165
-15.825639 4.2407912 13.535932
-16.324088 4.3033213 12.974278
-16.78341 4.3532498 12.383669
-17.236151 4.4055848 11.728035
-17.67712 4.4607113 11.080116
-18.101356 4.4885564 10.426969
-18.498165 4.4987665 9.7508115
-18.878679 4.4864056 9.0547341
-19.242583 4.4537174 8.3916443
-19.573051 4.4028981 7.7216104
-19.898037 4.3421133 7.010835
-20.183459 4.2654369 6.272813
-20.431431 4.1441683 5.623214
-20.626889 4.0260088 5.0160616
-20.749602 3.9235763 4.4577824
-20.836662 3.8241067 3.940261
-20.916524 3.7276012 3.4364947
-20.982689 3.6395462 2.9316364
-21.047188 3.5489914 2.4145564
-21.102233 3.457571 1.9132184
-21.141574 3.3679278 1.4080047
-21.11989 3.2730682 0.89930364
-20.845197 3.1630408 0.15763963
-20.473016 3.0782197 -0.65641767
-12.170408 2.8876789 16.87014
-12.799775 3.0669351 16.378592
-13.437686 3.2453117 15.881771
-14.098929 3.3972858 15.369568
-14.744286 3.5424098 14.832442
-15.381045 3.6879064 14.270572
-15.994949 3.8108586 13.692969
-16.517716 3.8555268 13.147514
-17.018396 3.8706323 12.575051
-17.489183 3.9033343 11.938313
-17.927654 3.9292153 11.258145
-18.359331 3.9559856 10.584139
-18.77758 3.9759114 9.9141826
-19.154346 3.9706732 9.197565
-19.50967 3.9507652 8.5074182
-19.848498 3.9058996 7.8261383
-20.170659 3.8430225 7.1121107
-20.465775 3.7723777 6.3464804
-20.72533 3.6601396 5.6659314
-20.933557 3.5326895 5.0503587
-21.064444 3.4298945 4.482585
[...]
POINT_DATA 900
VECTORS normals float
-0.28531495 0.70477177 0.64953224
-0.30536926 0.70834065 0.63639857
-0.33092035 0.70852514 0.62328472
-0.3551606 0.70661912 0.6120052
-0.37585117 0.70946061 0.59615563
-0.40456037 0.7071332 0.57990822
-0.43398057 0.71060599 0.55380502
-0.45886756 0.70964974 0.53463802
-0.48647734 0.71130254 0.5073347
-0.51799106 0.71220279 0.47376413
-0.54408945 0.71223576 0.44349395
-0.57433161 0.70908476 0.40907456
-0.60171861 0.70762063 0.37041567
-0.62204783 0.70661986 0.33726085
-0.63842942 0.70260446 0.31425284
-0.65436564 0.70203782 0.28097777
-0.68073668 0.69218918 0.23973258
-0.69551908 0.68905746 0.20360017
-0.71603316 0.67938729 0.16040394
-0.72692255 0.67440371 0.12947299
-0.73638971 0.66899315 0.10088786
-0.74323861 0.66509703 0.072403804
-0.74919472 0.66062392 0.047783959
-0.75351878 0.65680817 0.028503878
-0.75565371 0.65489304 0.010128155
-0.75946458 0.65053597 -0.0040623879
-0.76311198 0.64558286 -0.029713458
-0.7687882 0.63566735 -0.069940833
-0.7746339 0.62252925 -0.11135372
-0.78705513 0.59842539 -0.14977074
-0.28568235 0.69038416 0.66464675
-0.32156502 0.69027951 0.64815904
-0.33833929 0.70089772 0.62790836
-0.36535595 0.70304548 0.61011645
-0.38578436 0.70758533 0.59202486
-0.41344356 0.7071424 0.57359746
-0.4365367 0.70655758 0.55696688
-0.46395884 0.71009844 0.52962477
-0.48955198 0.71138157 0.50425699
-0.51666406 0.71297581 0.47405036
-0.55158612 0.7058086 0.44450756
-0.57686837 0.70335444 0.41534975
-0.60659524 0.70186007 0.3734095
-0.62924487 0.69910711 0.33955876
-0.64752409 0.6979197 0.30597491
-0.66902989 0.6911226 0.27340183
-0.68975151 0.684138 0.23706129
-0.70927743 0.67720842 0.19574035
-0.72616836 0.67065883 0.15131507
-0.73558848 0.66676148 0.11974435
-0.74391154 0.661967 0.091625974
-0.75068423 0.65729377 0.066618894
-0.75693065 0.6519113 0.045471309
-0.76257737 0.64646336 0.023682892
-0.76485186 0.64412516 0.010217685
-0.7672264 0.64134694 -0.0061438357
-0.7704661 0.63646253 -0.036019924
-0.77352522 0.62934708 -0.074705963
-0.78348063 0.60949794 -0.12112131
-0.79376613 0.58394126 -0.17014093
-0.29806341 0.66940155 0.68048495
-0.32903693 0.66912374 0.66633934
-0.34952379 0.67841109 0.64621321
-0.37782966 0.68998471 0.61738631
-0.39883522 0.69239662 0.60126316
-0.42313167 0.6964971 0.57952686
-0.44844412 0.70069835 0.55490512
-0.47048829 0.7027371 0.53366781
-0.50400647 0.70099376 0.5045644
-0.53311848 0.69677544 0.47988402
-0.56372866 0.69517213 0.44603331
-0.59048594 0.6930463 0.4135374
-0.61776061 0.69189118 0.37370901
-0.6408773 0.68837777 0.33972391
-0.66604131 0.68366061 0.29832391
-0.6841519 0.67844784 0.26766529
-0.6994227 0.67422285 0.2371317
-0.71830454 0.66879716 0.19170013
-0.73400151 0.66230947 0.15029291
-0.74655309 0.65563937 0.11311723
-0.75579491 0.64971076 0.081547442
-0.76046647 0.64703178 0.055141866
-0.76546185 0.6424602 0.036235869
-0.76865531 0.6392456 0.023110205
-0.77030323 0.63759872 0.010040065
-0.77238941 0.63511709 -0.006393873
-0.77784234 0.62732783 -0.037697204
-0.78108557 0.61789786 -0.090041998
-0.79142427 0.5956885 -0.13712343
-0.79672093 0.57078804 -0.19858697
-0.31277273 0.64735892 0.6950537
-0.34034388 0.65440184 0.67522165
-0.36597584 0.64812517 0.6678289
-0.38219869 0.65935741 0.64743492
-0.41530389 0.66444449 0.62131811
-0.43873544 0.67382044 0.59453951
-0.46468562 0.67662385 0.57118075
-0.4933022 0.68230934 0.53954324
-0.52643335 0.67912534 0.5115239
-0.55645096 0.67683847 0.48192532
-0.57961337 0.67756917 0.45271223
-0.60655758 0.676586 0.41751562
-0.63121022 0.67415823 0.38351577
-0.65344426 0.67409841 0.34438631
-0.6779639 0.66987919 0.30269921
-0.70180955 0.66311463 0.26027359
-0.71466476 0.66098642 0.22880392
-0.72742749 0.65934957 0.19001944
-0.74289564 0.65303126 0.1471606
-0.75524871 0.64741285 0.10225452
-0.7633574 0.64216443 0.07007369
-0.77114128 0.63478885 0.048828588
-0.77257128 0.63411194 0.032181826
-0.773893 0.6329669 0.021036486
-0.77812344 0.62804791 0.0089299024
-0.7805382 0.62500639 -0.011275702
-0.78449401 0.61871209 -0.042005969
-0.78889146 0.60620578 -0.10082067
-0.80076382 0.57820323 -0.15639158
-0.80517968 0.54538163 -0.23290461
-0.31070638 0.63219176 0.70978527
-0.34729302 0.634618 0.69039666
-0.37059312 0.63326164 0.67944127
-0.39573848 0.63903275 0.65956668
-0.4253692 0.64220793 0.63767548
-0.45303348 0.64910259 0.61108631
-0.49211827 0.65180847 0.57703147
-0.52204874 0.64949448 0.55283093
-0.55421461 0.64994441 0.52001773
-0.58213302 0.64977263 0.48879103
-0.61322996 0.64409541 0.45726373
-0.63040119 0.647768 0.42777443
-0.65296602 0.6498155 0.38906965
-0.67635746 0.64783002 0.35050943
-0.69390515 0.65125125 0.30719286
-0.71375389 0.64643009 0.26959883
-0.72892281 0.64552128 0.22797764
-0.74250772 0.64282442 0.18830573
-0.75574776 0.63958107 0.14064627
-0.76485398 0.63606436 0.10208098
-0.77313428 0.63077444 0.066234293
-0.77749146 0.6271167 0.047240673
-0.7810199 0.62375513 0.030617917
-0.78267623 0.6221745 0.017799243
-0.78482036 0.61971418 0.0033666055
-0.78815076 0.61535288 -0.012617932
-0.79422813 0.60511267 -0.055139164
-0.79896199 0.58745514 -0.1286709
-0.80540881 0.55650786 -0.20399914
-0.81046038 0.5164037 -0.27655232
-0.31751027 0.6163701 0.72060747
-0.35077347 0.61674639 0.70468565
-0.37784861 0.62097615 0.68674526
-0.40124378 0.6240963 0.67045301
-0.43205465 0.6265038 0.64870776
-0.47061634 0.63028544 0.61746297
-0.50793922 0.62724358 0.59039244
-0.54741262 0.62516664 0.55633271
-0.57684876 0.62230459 0.52913373
-0.60849975 0.61703666 0.4989928
-0.6311555 0.61685377 0.47024905
-0.65316438 0.61690392 0.43909663
-0.67586991 0.6205482 0.3976428
-0.70000112 0.61869891 0.35666524
-0.71679362 0.62071107 0.31768643
-0.73046216 0.62455122 0.27633457
-0.74267373 0.62540418 0.23938534
-0.75692414 0.62313552 0.19689585
-0.76644545 0.62519323 0.14729154
-0.78019095 0.61793697 0.097241872
-0.78596121 0.61517917 0.0618026
-0.78856324 0.61326716 0.045512826
-0.79134113 0.61064894 0.029783999
-0.79180378 0.61051817 0.01772972
-0.79463811 0.60707833 0.0024861871
-0.79817367 0.60223379 -0.015272846
-0.80379013 0.59087703 -0.069179194
-0.80910924 0.56762302 -0.15213927
-0.81005062 0.53023092 -0.25034607
-0.81711374 0.48291131 -0.31483615
-0.32495972 0.60008005 0.73096178
-0.36394772 0.59799559 0.71410317
-0.38741259 0.60354641 0.69688106
-0.4075152 0.60397294 0.68494383
-0.44336442 0.60622492 0.66024188
-0.48062773 0.60993367 0.63006183
-0.52187786 0.61187537 0.59435009
-0.56621259 0.6042548 0.56060631
-0.59860156 0.59982768 0.53092647
-0.6270792 0.59276122 0.5053769
-0.64843611 0.59505059 0.47481091
-0.67196795 0.59379588 0.44256697
-0.6942835 0.58983713 0.41238645
-0.71513808 0.59355521 0.36914732
-0.73524924 0.59326387 0.32779039
-0.75090012 0.59519287 0.28617208
-0.7651553 0.59371811 0.24907062
-0.77430075 0.59803825 0.20690241
-0.78292755 0.60305917 0.1527877
-0.7918425 0.60148297 0.10584754
-0.79452513 0.60342143 0.067914611
-0.79584666 0.60384015 0.044779121
-0.80067146 0.59849707 0.026953023
-0.8027525 0.59613156 0.014682482
-0.80404337 0.59457012 -0.00078950336
-0.80884009 0.58745205 -0.026034595
-0.81543785 0.57080241 -0.096154698
-0.81992429 0.54911434 -0.16185674
-0.82207295 0.49583912 -0.27989218
-0.82392805 0.44848979 -0.34640941
-0.33551874 0.58343336 0.73961659
-0.3588993 0.58733776 0.72541412
-0.39357836 0.58773545 0.70686853
-0.41505267 0.58937068 0.69308981
-0.44709995 0.58974654 0.67253302
-0.49583709 0.58802506 0.63903999
-0.54796719 0.58844377 0.59452997
-0.58202246 0.58937829 0.5602527
-0.60697633 0.58633962 0.53645651
-0.63351557 0.58331411 0.50833323
-0.66056449 0.57971987 0.47705286
-0.68247839 0.57545605 0.45063687
-0.70653947 0.56827074 0.42174678
-0.73199001 0.56488282 0.38091734
-0.75009419 0.56815735 0.33846112
-0.76060706 0.57361952 0.30403544
-0.77718367 0.57223355 0.26179059
-0.79272035 0.56903464 0.21861843
-0.80238159 0.57401139 0.16338515
-0.81015231 0.5740858 0.11865382
-0.81098938 0.57944433 0.08087332
-0.81102047 0.58280723 0.050808749
-0.8115056 0.58358591 0.029768261
-0.81299899 0.58202561 0.016698069
-0.81439074 0.58031681 -0.00033852389
-0.81944372 0.57207059 -0.035316061
-0.82298284 0.5581546 -0.10565361
-0.83294114 0.5222908 -0.18281516
-0.82794936 0.47424137 -0.29932419
-0.82633818 0.425298 -0.36917046
-0.34525712 0.57322192 0.74311113
-0.3699658 0.56958804 0.73395829
-0.40215354 0.56885289 0.71741126
-0.43121652 0.56382892 0.70437864
-0.45913625 0.56759678 0.68339432
-0.51138012 0.55717317 0.65425411
-0.55878244 0.56333546 0.60861758
-0.59057226 0.57025111 0.57099744
-0.62261598 0.5664332 0.53990998
-0.64935879 0.56765243 0.50606707
-0.6750337 0.56189077 0.47812997
-0.70060072 0.5515039 0.45277155
-0.72202219 0.54709568 0.42352128
-0.74188578 0.54712755 0.38762989
-0.76153221 0.5449606 0.35083706
-0.77812149 0.5462218 0.31011078
-0.79250468 0.54855447 0.26650389
-0.80462717 0.55231594 0.21799593
-0.81391071 0.55446579 0.17354262
-0.82362469 0.55191722 0.13049807
-0.82770335 0.55426485 0.087736228
-0.82529389 0.56176923 0.057492056
-0.82499757 0.56419581 0.03258995
-0.82557352 0.56400527 0.018066806
-0.82892649 0.55927689 -0.0094987892
-0.83219137 0.55206767 -0.051757317
-0.84098587 0.52458711 -0.13248072
-0.84361828 0.49241437 -0.2140941
-0.83273642 0.44703473 -0.32666498
-0.82691103 0.41103692 -0.38375357
-0.35997821 0.54806224 0.75501223
-0.3892256 0.54554159 0.74221817
-0.41895268 0.54114024 0.72914051
-0.45313409 0.53280754 0.71469267
-0.48220572 0.5331547 0.69514294
-0.536137 0.52341234 0.66226628
-0.57289729 0.53125728 0.62414293
-0.60718441 0.53849287 0.58425381
-0.64094549 0.53467677 0.55073554
-0.66897005 0.53847951 0.51236597
-0.69038766 0.54066599 0.48067157
-0.7113315 0.53486417 0.45599102
-0.73508635 0.53034201 0.42235696
-0.75545429 0.52589208 0.39080218
-0.77326545 0.5250504 0.35550335
-0.78823464 0.52340703 0.32362204
-0.80480883 0.52665601 0.27370822
-0.81697902 0.52795496 0.23196734
-0.82518714 0.53550083 0.17973601
-0.83002156 0.54126828 0.13450968
-0.83193994 0.54610981 0.09818351
-0.83257249 0.55015288 0.064458101
-0.83331178 0.55135606 0.039974791
-0.83583369 0.54875991 0.015639517
-0.84034206 0.54173913 -0.018545641
-0.84827671 0.52537473 -0.066392854
-0.85608765 0.4926456 -0.15625058
-0.85198644 0.46180545 -0.24668772
-0.83958595 0.42084733 -0.34348646
-0.82794954 0.38902307 -0.40393143
-0.37604601 0.52765584 0.76168807
-0.40741366 0.51730161 0.75260425
-0.4428842 0.50305972 0.74214857
-0.46620034 0.50899026 0.72359254
-0.51505772 0.49309645 0.70112156
-0.56161477 0.48393541 0.67111502
-0.59495193 0.49338596 0.63450965
-0.62439369 0.48707065 0.61065105
-0.65983456 0.48906558 0.57046754
-0.68323569 0.50337192 0.52896663
-0.71163959 0.50568331 0.48770225
-0.72811232 0.51013257 0.45783972
-0.74737549 0.50974434 0.42613447
-0.76623937 0.5059261 0.39612626
-0.78170437 0.50873552 0.36073044
-0.7972544 0.5042791 0.33179513
-0.81433879 0.50486433 0.28629414
-0.82597775 0.51277784 0.23413596
-0.83179879 0.52271125 0.18677187
-0.83575067 0.52815042 0.15025962
-0.83716339 0.53679704 0.10491142
-0.84083209 0.53707405 0.06747487
-0.84369522 0.53551026 0.037511831
-0.84902444 0.52825321 0.010298225
-0.85619963 0.51620952 -0.021211347
-0.86455205 0.49485087 -0.08759206
-0.86605035 0.467926 -0.17607398
-0.85540877 0.43095465 -0.28732199
-0.84413453 0.38965764 -0.36824424
-0.83236773 0.35544807 -0.42523009
-0.39474376 0.49973125 0.77100327
-0.42345245 0.49280426 0.7601526
-0.4643565 0.47540667 0.74723593
-0.50098307 0.46068167 0.73265842
-0.5429651 0.44935493 0.70941458
-0.58127878 0.43799276 0.68576769
-0.61043299 0.44046002 0.6583058
-0.6458618 0.4363603 0.62646008
-0.67787312 0.43702711 0.59118131
-0.70760831 0.44495089 0.54891637
-0.72604144 0.46067887 0.51052797
-0.74255705 0.47229827 0.47491407
-0.76036778 0.48023676 0.43727965
-0.77684729 0.48258994 0.40449381
-0.7968381 0.48039953 0.36642234
-0.80774218 0.48487737 0.33533046
-0.81755194 0.49413992 0.29569337
-0.83291342 0.49582162 0.24579699
-0.84005012 0.5040377 0.20065342
-0.84214785 0.51706138 0.15308338
-0.84779265 0.5190242 0.10891052
-0.85209725 0.51866464 0.070123278
-0.85759818 0.51311081 0.035251409
-0.86559758 0.50072951 0.0032842202
-0.87079614 0.49032361 -0.036011559
-0.87541126 0.47049039 -0.11087795
-0.87081632 0.43617528 -0.22678199
-0.85964975 0.40428324 -0.31234177
-0.84520449 0.35886205 -0.39603965
-0.83247536 0.33041255 -0.44476098
-0.4314195 0.45880012 0.77677517
-0.45518813 0.44908499 0.76884747
-0.49685181 0.42523761 0.75651256
-0.53583121 0.40443823 0.74115763
-0.57253707 0.39601462 0.71789534
-0.60554377 0.38296412 0.69760679
-0.64362451 0.37410883 0.66767512
-0.66887634 0.37191461 0.64364894
-0.69667369 0.37651876 0.61063851
-0.72128666 0.38513882 0.57568536
-0.74047448 0.40970376 0.53276672
-0.75432828 0.43311599 0.49335523
-0.77431969 0.44692093 0.44798516
-0.78881832 0.45428081 0.41399832
-0.80501094 0.45739132 0.37782347
-0.81951561 0.45965898 0.34221015
-0.83207492 0.4625658 0.30607876
-0.83939469 0.47425817 0.26551036
-0.8465782 0.48710309 0.21455984
-0.85342008 0.49358995 0.16746082
-0.86085852 0.49486744 0.11844334
-0.86738015 0.49168699 0.07678269
-0.87400087 0.48514435 0.027521737
-0.87952717 0.47571785 -0.011157465
-0.88524362 0.46085358 -0.062910284
-0.89087283 0.43257462 -0.13865355
-0.88333987 0.39143736 -0.25785165
-0.86403312 0.36115001 -0.35073842
-0.84574722 0.32868005 -0.42033446
-0.83631666 0.29295016 -0.46341628
-0.45973919 0.41047628 0.78749546
-0.49346042 0.38673366 0.77905962
-0.53907394 0.35431254 0.76410858
-0.56816686 0.35196765 0.74384487
-0.60656669 0.32928382 0.72363597
-0.62807087 0.31233747 0.71272175
-0.65876357 0.30722836 0.68676145
-0.68676756 0.31032229 0.65730541
-0.70904654 0.31727998 0.62975107
-0.73165739 0.32619059 0.59856257
-0.74488791 0.34480614 0.57118362
-0.76782382 0.37828182 0.51705846
-0.78785163 0.40032696 0.46800442
-0.80158668 0.41028443 0.43488559
-0.82184552 0.416429 0.38878891
-0.83500373 0.4193468 0.35625415
-0.84088204 0.43314597 0.32450264
-0.85070289 0.44359714 0.28200384
-0.85733685 0.45779414 0.23536791
-0.87149027 0.45477733 0.18352733
-0.88038009 0.45682431 0.12744586
-0.88489141 0.46026643 0.071568185
-0.89062592 0.45378073 0.029470601
-0.89775653 0.4397252 -0.025979873
-0.90611473 0.41292614 -0.091913536
-0.90424045 0.38553003 -0.18361863
-0.89004949 0.35110918 -0.29074774
-0.8697408 0.31660074 -0.37856955
-0.84860445 0.28904096 -0.44308669
-0.83869633 0.26595842 -0.4752416
-0.50245686 0.34059053 0.79469188
-0.53095687 0.33249253 0.77944437
-0.56212051 0.3113629 0.76620733
-0.59439529 0.29230209 0.74916869
-0.62582718 0.26610611 0.73316293
-0.65196335 0.25100552 0.71549984
-0.67245279 0.25118413 0.69621389
-0.69870661 0.26590843 0.66415493
-0.72012462 0.26742326 0.6402385
-0.73021269 0.27637172 0.62482646
-0.75329242 0.2881783 0.59118846
-0.77742474 0.31198676 0.54614561
-0.79848336 0.33460536 0.50046336
-0.81814367 0.35814013 0.44986284
-0.83453115 0.37591645 0.40279596
-0.84478088 0.38509666 0.37154518
-0.85140237 0.39840341 0.34115791
-0.86372133 0.40953757 0.29370809
-0.87557898 0.41488643 0.24744838
-0.88719062 0.42147945 0.18774415
-0.89626743 0.42464835 0.1279784
-0.90304084 0.42257696 0.077110017
-0.91168193 0.4102005 0.023908163
-0.92030198 0.38944677 -0.037087465
-0.92297985 0.36621273 -0.11830654
-0.91896326 0.33215739 -0.21255118
-0.90001709 0.29665927 -0.3193157
-0.87446383 0.26966375 -0.40323004
-0.85024654 0.24602103 -0.46535414
-0.84250426 0.22640318 -0.4888028
-0.53623358 0.2983348 0.78958843
-0.55476743 0.2790982 0.78379672
-0.59724745 0.2459976 0.76340072
-0.62209021 0.22819883 0.74895197
-0.63894222 0.22016373 0.73707582
-0.65765062 0.21457631 0.72211679
-0.67890204 0.2126005 0.70277524
-0.70434861 0.21583861 0.67624458
-0.72258386 0.22479772 0.65371137
-0.73701878 0.23213346 0.63475773
-0.7572652 0.24793696 0.60421576
-0.77824551 0.26204301 0.57067275
-0.80697595 0.27785189 0.5211412
-0.82637015 0.30123248 0.47578501
-0.84121506 0.32526917 0.43192266
-0.85346161 0.34439727 0.39114422
-0.86830462 0.34630157 0.35513703
-0.87880436 0.36609523 0.30606728
-0.89540822 0.36613943 0.25334963
-0.90676211 0.36891105 0.20417419
-0.92214227 0.36051387 0.1402975
-0.9312668 0.35621688 0.076496221
-0.93677534 0.34939819 0.019309852
-0.94195242 0.33186244 -0.050921108
-0.94030874 0.30226872 -0.15637487
-0.92915626 0.2782948 -0.24335293
-0.90454843 0.24526601 -0.34876456
-0.87500215 0.22149536 -0.43047769
-0.85174899 0.19818173 -0.48502335
-0.84392915 0.18219952 -0.50456608
-0.56505459 0.23458583 0.79100114
-0.57973056 0.21946812 0.78469498
-0.61098012 0.19660131 0.76684498
-0.6343905 0.1850643 0.75053307
-0.65166044 0.17775205 0.73738923
-0.66498222 0.17407246 0.72629018
-0.68374399 0.17616833 0.70813761
-0.70493526 0.18209388 0.68549843
-0.72382451 0.18963919 0.66341168
-0.73941871 0.19509666 0.64435802
-0.75887472 0.20774201 0.61721343
-0.77963107 0.21334026 0.58877952
-0.80539449 0.23471749 0.54428615
-0.82585882 0.25623543 0.50229535
-0.84442436 0.27817341 0.45778495
-0.86424449 0.29653314 0.40638597
-0.8772071 0.3154689 0.36192136
-0.89306322 0.31323751 0.3229866
-0.90621346 0.32646981 0.26869059
-0.92568295 0.31827941 0.20447323
-0.9399971 0.31441152 0.13247959
-0.94721268 0.31244888 0.07185984
-0.95380065 0.30043972 -0.00054298267
-0.95759664 0.27532879 -0.084868964
-0.95045315 0.25394753 -0.17930269
-0.9323497 0.21966558 -0.28717776
-0.90382319 0.19460932 -0.38109166
-0.86771748 0.18170776 -0.46265394
-0.85075954 0.16945611 -0.49748651
-0.84014522 0.15504043 -0.51972922
-0.59029922 0.17635743 0.78768324
-0.61369376 0.15938397 0.77328954
-0.62663592 0.14988248 0.76476314
-0.64270617 0.14306972 0.75263526
-0.65219726 0.14548403 0.74395775
-0.67003697 0.14311711 0.72840095
-0.68908117 0.14359739 0.71031467
-0.70457917 0.15248216 0.69304934
-0.7233658 0.16102476 0.67142606
-0.73830896 0.17081083 0.65247494
-0.75610479 0.17372158 0.63097255
-0.77400781 0.17968872 0.60714404
-0.79957644 0.1992784 0.56653829
-0.82341522 0.22447981 0.52114892
-0.84403487 0.23591651 0.48161037
-0.869132 0.25847888 0.42166127
-0.88603501 0.26717669 0.37889124
-0.90193496 0.27203978 0.33542165
-0.92041497 0.27634448 0.2765321
-0.93865375 0.26966158 0.21496922
-0.95479685 0.26380601 0.13700133
-0.96366247 0.25953134 0.063230686
-0.97131308 0.23686542 -0.021110899
-0.97069449 0.21352645 -0.11026632
-0.95720878 0.19766097 -0.21137997
-0.92973474 0.17378695 -0.32464045
-0.90503736 0.16060068 -0.39384616
-0.86940277 0.15169011 -0.47024348
-0.84652346 0.14650141 -0.51179621
-0.83246556 0.13136522 -0.53827899
-0.61061164 0.13206027 0.78084154
-0.62396389 0.12329517 0.77166532
-0.63623096 0.11563341 0.76278377
-0.64784246 0.11519623 0.75301393
-0.66230918 0.11348541 0.74058599
-0.6758192 0.11202349 0.72850474
-0.6890363 0.10906191 0.71647364
-0.70491785 0.11531704 0.69985199
-0.7221077 0.12612603 0.68018578
-0.73985062 0.13406831 0.65927745
-0.7539054 0.14466013 0.64085888
-0.77201985 0.15471675 0.61648039
-0.79177257 0.16696633 0.58755292
-0.81104854 0.18656919 0.55442962
-0.84093566 0.2020339 0.5020055
-0.86804482 0.22321671 0.44347773
-0.8876371 0.23447853 0.3963839
-0.9078544 0.23880371 0.34463484
-0.93302418 0.23562457 0.27193187
-0.94686067 0.2325901 0.22216373
-0.96498013 0.22787473 0.12994792
-0.97653573 0.21185661 0.038661927
-0.97909972 0.19705302 -0.05033725
-0.97334344 0.17866755 -0.14380699
-0.95405414 0.16004687 -0.2533095
-0.9248392 0.14199764 -0.3528585
-0.90264648 0.13803351 -0.40764701
-0.86571975 0.13672471 -0.48149317
-0.84340053 0.12318192 -0.52297395
-0.82541572 0.10335812 -0.55498287
-0.62260827 0.0998421 0.77613819
-0.62946856 0.10127098 0.77039828
-0.64016912 0.08838959 0.76313221
-0.65237729 0.086711537 0.75291765
-0.66465957 0.083534104 0.74246192
-0.6780598 0.082167785 0.73039945
-0.69137385 0.084514223 0.71753714
-0.70385953 0.089857389 0.70463282
-0.71913303 0.096801019 0.68809683
-0.73686248 0.11099244 0.66686908
-0.7488357 0.11097861 0.65339792
-0.76703342 0.12391634 0.62952718
-0.78823677 0.13702175 0.59992318
-0.80709596 0.1517856 0.57057624
-0.83793374 0.17207264 0.51793634