# vtk DataFile Version 2.0
Grain example
ASCII
DATASET UNSTRUCTURED_GRID
POINTS 900 float
3.5404776 23.967022 -5.0976541
3.3665662 23.93489 -6.0824927
3.3039307 23.794421 -7.1393315
3.244974 23.591453 -8.1872807
3.2295469 23.304994 -9.1417196
3.2273785 22.904918 -9.9757761
3.2198728 22.458006 -10.702141
3.2072875 21.999772 -11.393271
3.2372636 21.497097 -12.043672
3.2846859 20.976574 -12.68302
3.3222841 20.453591 -13.301406
3.3222349 19.905357 -13.886285
3.3096894 19.332594 -14.460465
3.2861764 18.723003 -15.051786
3.2500671 17.992648 -15.682539
3.2297662 17.245442 -16.276917
3.217879 16.509222 -16.854862
3.2332636 15.716782 -17.455378
3.2190015 14.883397 -18.096135
3.2202612 14.028125 -18.745435
3.2341022 13.156651 -19.402372
3.2395879 12.306563 -20.043332
3.205701 11.450095 -20.665451
3.1236772 10.668973 -21.201103
3.1139311 10.023443 -21.601834
3.2125767 9.467647 -21.90574
3.3790952 8.9974006 -22.109492
3.5520686 8.5391951 -22.294935
3.728402 8.0853073 -22.470587
3.9085097 7.629103 -22.64972
4.225374 24.061336 -5.0393329
4.0138447 24.075844 -5.9866021
3.9416628 23.950368 -7.0349382
3.8609432 23.752051 -8.0984272
3.8370808 23.480829 -9.0735918
3.8097018 23.081922 -9.8896197
3.7955232 22.640859 -10.610651
3.7884978 22.178839 -11.298798
3.819707 21.670324 -11.947963
3.8700544 21.149911 -12.582962
3.9136243 20.620107 -13.205378
3.9238041 20.081768 -13.783441
3.9331764 19.530478 -14.330672
3.9367223 18.949486 -14.904589
3.9280369 18.232628 -15.487517
3.90645 17.483641 -16.079511
3.920553 16.722715 -16.66146
3.9555373 15.926566 -17.252195
3.9952814 15.083305 -17.87428
4.0028981 14.219859 -18.527445
4.0115421 13.34402 -19.19193
4.0036626 12.494951 -19.833078
3.9629248 11.640913 -20.432179
3.9127834 10.816835 -20.970434
3.9247479 10.142554 -21.368103
4.0537493 9.5897314 -21.646616
4.2066688 9.1198457 -21.849968
4.3799922 8.6621265 -22.036062
4.5661248 8.2063848 -22.206823
4.7699845 7.7446797 -22.380361
4.935404 24.141558 -4.9671202
4.6534518 24.190764 -5.8990279
4.5928015 24.092729 -6.9364361
4.5034691 23.9107 -7.9931572
4.4447338 23.652888 -8.9959098
4.4003409 23.247468 -9.7922914
4.369949 22.818412 -10.523138
4.3697088 22.357906 -11.204326
4.4033743 21.848853 -11.848274
4.4685797 21.326051 -12.484249
4.5342659 20.788817 -13.114061
4.5552616 20.257241 -13.67662
4.5741322 19.714832 -14.215678
4.5968956 19.140416 -14.760355
4.5970299 18.468226 -15.303402
4.6136494 17.706842 -15.880246
4.6433517 16.933227 -16.459254
4.7035013 16.118779 -17.055992
4.766681 15.282451 -17.662037
4.7903322 14.415544 -18.301229
4.795836 13.543846 -18.963853
4.7863262 12.690158 -19.600872
4.7677381 11.824285 -20.173612
4.7238069 11.006588 -20.706484
4.7655048 10.271611 -21.111737
4.9008875 9.7121971 -21.379013
5.0522237 9.2476661 -21.582953
5.2383351 8.7809107 -21.764415
5.446753 8.325184 -21.930385
5.6978204 7.8592751 -22.079677
5.6841976 24.224114 -4.9002102
5.3687773 24.305868 -5.8138096
5.261204 24.222909 -6.8412102
5.1585273 24.052576 -7.8872647
5.09002 23.801555 -8.861538
5.0006368 23.405386 -9.6911717
4.9691211 22.991839 -10.431875
4.9773002 22.535116 -11.109138
5.0323758 22.024864 -11.746668
5.0980484 21.502708 -12.38351
5.1699979 20.959059 -13.017897
5.1853038 20.43075 -13.567168
5.2077765 19.900544 -14.100412
5.2420361 19.315132 -14.630044
5.2772836 18.667098 -15.139543
5.3221561 17.905773 -15.687089
5.3934286 17.117046 -16.261683
5.4607063 16.31214 -16.855625
5.5384637 15.47835 -17.448743
5.5697711 14.611336 -18.081269
5.5822559 13.737181 -18.735313
5.5932179 12.882675 -19.333217
5.5692204 12.023459 -19.902529
5.5684007 11.203429 -20.40708
5.6362825 10.421709 -20.822144
5.7684039 9.8433559 -21.10837
5.9579693 9.373839 -21.292715
6.1756428 8.9007458 -21.46176
6.4117396 8.4298648 -21.62237
6.6634458 7.9717109 -21.744319
6.3933357 24.272967 -4.8427597
6.0846872 24.385366 -5.7305126
5.9220092 24.3465 -6.7416553
5.8261162 24.177684 -7.7807492
5.7408857 23.921848 -8.7087509
5.6533035 23.541298 -9.5438924
5.5968669 23.128707 -10.326332
5.5677689 22.692878 -11.007968
5.627704 22.177868 -11.641214
5.6953112 21.650845 -12.278121
5.7645741 21.111021 -12.911047
5.7887776 20.583212 -13.447505
5.825978 20.050434 -13.98148
5.8673858 19.451944 -14.497772
5.933585 18.79295 -14.991958
6.0340598 18.061026 -15.509371
6.1110925 17.27583 -16.060837
6.1793195 16.473954 -16.649408
6.2529296 15.641194 -17.245927
6.3356499 14.785845 -17.850839
6.38664 13.908973 -18.486684
6.3718489 13.058402 -19.055293
6.363864 12.199944 -19.612575
6.4280696 11.386178 -20.071705
6.5401055 10.577829 -20.480095
6.6902911 9.9754474 -20.776929
6.9047679 9.475957 -20.961515
7.1538027 8.9924721 -21.116008
7.3852204 8.5223148 -21.25543
7.5847158 8.038107 -21.349694
7.0931259 24.316506 -4.7869014
6.8069101 24.437075 -5.6594679
6.6237713 24.453961 -6.6285336
6.5207473 24.279205 -7.6641655
6.4281203 24.021313 -8.5683779
6.3376764 23.671243 -9.3924819
6.2562656 23.256882 -10.179609
6.2098535 22.822351 -10.876627
6.22649 22.324171 -11.528872
6.2800649 21.789533 -12.169062
6.3511345 21.248268 -12.795565
6.3770368 20.726421 -13.328927
6.4301537 20.185169 -13.862315
6.51084 19.549519 -14.361118
6.6158495 18.890288 -14.846566
6.7210112 18.186657 -15.34319
6.8069491 17.420504 -15.874646
6.8799133 16.62091 -16.446205
6.9849994 15.788298 -17.033235
7.0920696 14.940034 -17.615349
7.1309129 14.059198 -18.218786
7.1337272 13.209705 -18.777443
7.2183015 12.3588 -19.275582
7.3396186 11.537232 -19.704887
7.4824354 10.710479 -20.11015
7.6862684 10.097382 -20.371612
7.9004654 9.5827454 -20.564652
8.1152482 9.0682432 -20.726723
8.2843297 8.5806422 -20.830243
8.4361956 8.0465358 -20.891221
7.8160063 24.363518 -4.7335513
7.5465185 24.480465 -5.6010923
7.3144979 24.555493 -6.5181449
7.2109881 24.387089 -7.509539
7.1081853 24.126923 -8.4241917
7.0203122 23.780417 -9.2530684
6.9542698 23.384707 -10.031782
6.9090337 22.942285 -10.722568
6.8872999 22.443149 -11.387493
6.9018382 21.934852 -12.048344
6.9459441 21.392667 -12.669593
6.9777601 20.863917 -13.206877
7.0758388 20.274678 -13.732522
7.1925913 19.631386 -14.223746
7.2995586 18.974698 -14.704813
7.4057576 18.290867 -15.18814
7.4914063 17.557603 -15.702873
7.6115415 16.761138 -16.245636
7.7336855 15.931502 -16.815002
7.8543947 15.093273 -17.378618
7.9188015 14.207184 -17.939091
7.9906885 13.3573 -18.45411
8.1382236 12.498812 -18.913727
8.3063187 11.661124 -19.312701
8.4759918 10.825284 -19.698574
8.6766378 10.211545 -19.955885
8.8638819 9.6828755 -20.141522
8.9976187 9.1407741 -20.272067
9.1438161 8.599151 -20.338551
9.2446147 8.0707685 -20.388075
8.5321329 24.408071 -4.6847728
8.2737118 24.530002 -5.5471916
7.9996593 24.623 -6.4233149
7.9101482 24.487554 -7.3528047
7.8007418 24.227848 -8.2790328
7.7103813 23.882824 -9.1155132
7.6386925 23.489794 -9.8946048
7.6194477 23.058746 -10.572533
7.611881 22.56184 -11.235789
7.5973346 22.053625 -11.897225
7.5881908 21.538755 -12.51844
7.6454162 20.979257 -13.076043
7.7727703 20.354431 -13.588709
7.8824114 19.716548 -14.081798
7.9787905 19.060623 -14.566293
8.0880551 18.384476 -15.041045
8.2164668 17.682025 -15.526653
8.3538253 16.889881 -16.060516
8.5253111 16.070116 -16.583056
8.6787399 15.219907 -17.125084
8.8038843 14.343237 -17.620555
8.9256702 13.482159 -18.095444
9.1121756 12.624866 -18.515448
9.299025 11.778525 -18.90131
9.4797153 10.953503 -19.273819
9.6408661 10.320011 -19.521761
9.7740891 9.7624386 -19.660327
9.8915794 9.2050298 -19.748208
9.9666683 8.6423709 -19.814114
10.050283 8.0983979 -19.867321
9.2418619 24.458732 -4.6916197
8.9878781 24.574798 -5.5021079
8.7013537 24.659751 -6.3172404
8.5859795 24.566467 -7.209872
8.4909632 24.341774 -8.1242306
8.3961497 23.987805 -8.9759447
8.3203369 23.593991 -9.7596027
8.3201467 23.143722 -10.435715
8.3218172 22.672063 -11.086228
8.3183379 22.167356 -11.738877
8.3389772 21.639908 -12.342611
8.4263535 21.046374 -12.904888
8.4870248 20.423378 -13.421113
8.5935922 19.788952 -13.920037
8.6854869 19.145684 -14.405023
8.8197589 18.465944 -14.884526
8.9927789 17.772673 -15.349001
9.1747362 17.000846 -15.85899
9.3765419 16.172483 -16.374488
9.548817 15.331463 -16.824571
9.7130651 14.474702 -17.27346
9.8795035 13.603992 -17.71848
10.088649 12.742924 -18.108547
10.296963 11.899065 -18.481842
10.460168 11.072453 -18.832467
10.570202 10.398817 -19.023661
10.657463 9.8274558 -19.139891
10.734199 9.251985 -19.201804
10.798111 8.69648 -19.257542
10.88238 8.138318 -19.304909
9.9553903 24.512684 -4.7006306
9.7211858 24.62067 -5.4598394
9.4113502 24.693156 -6.2201345
9.2561968 24.634582 -7.0794067
9.185174 24.447918 -7.9742104
9.0906351 24.100339 -8.8261418
9.0084187 23.695614 -9.6232457
9.0160189 23.231526 -10.298351
9.0212893 22.756323 -10.949575
9.067789 22.255843 -11.579319
9.1592859 21.700187 -12.168248
9.2427497 21.099259 -12.718372
9.297663 20.472055 -13.225672
9.3582204 19.844958 -13.731909
9.4973152 19.205025 -14.196166
9.6854011 18.524661 -14.665049
9.8906053 17.814929 -15.129003
10.071491 17.077567 -15.614124
10.245731 16.260087 -16.10932
10.450002 15.420952 -16.503741
10.647557 14.590827 -16.886318
10.849985 13.717521 -17.30222
11.105584 12.847257 -17.656858
11.304025 11.989376 -17.995797
11.418582 11.144574 -18.287044
11.475216 10.469485 -18.452676
11.54208 9.8774044 -18.534569
11.615714 9.3051819 -18.59425
11.6984 8.7523744 -18.642203
11.784013 8.1698235 -18.687733
10.675154 24.559197 -4.7117191
10.423412 24.657295 -5.4133659
10.142884 24.728991 -6.1254032
9.9238777 24.700263 -6.9620955
9.8491304 24.52076 -7.8501617
9.7898973 24.205258 -8.6802914
9.7082082 23.789742 -9.480182
9.7111597 23.318319 -10.159631
9.7493188 22.82304 -10.815446
9.8526357 22.297877 -11.430927
9.9751026 21.74506 -11.993158
10.0612 21.143498 -12.522365
10.146885 20.509032 -13.023798
10.318307 19.85695 -13.505588
10.480424 19.212303 -13.959766
10.640874 18.528286 -14.425274
10.810716 17.823231 -14.888337
11.000264 17.115729 -15.350274
11.193403 16.321168 -15.752066
11.381913 15.501322 -16.136444
11.610689 14.659669 -16.50377
11.891813 13.817427 -16.823011
12.131427 12.932388 -17.143488
[...]
POINT_DATA 900
VECTORS normals float
-0.18824038 0.97662168 0.10380583
-0.21799382 0.97462137 -0.050910557
-0.24068342 0.95623468 -0.16639329
-0.2501853 0.9348251 -0.2520106
-0.25132305 0.90168803 -0.35184574
-0.22887945 0.85909138 -0.45779492
-0.20894522 0.82438482 -0.52605282
-0.19647805 0.79363737 -0.57579171
-0.18264178 0.76914626 -0.61241817
-0.16665865 0.75178937 -0.63799502
-0.14962038 0.73738581 -0.65869258
-0.13316991 0.71657709 -0.68467734
-0.11702257 0.68925768 -0.7150032
-0.098428168 0.66527356 -0.74008309
-0.075769419 0.64417335 -0.7611174
-0.057140774 0.62801479 -0.77610074
-0.03444939 0.62060362 -0.78336734
-0.015544595 0.61522072 -0.78820164
0.0017842717 0.60675222 -0.79488902
0.021930469 0.59306236 -0.80485781
0.036813985 0.58099725 -0.81307252
0.043890991 0.56999868 -0.82047247
0.060736547 0.55147322 -0.83197858
0.054958829 0.52734493 -0.84787196
0.056638648 0.49353277 -0.86788102
0.068597019 0.45989522 -0.88531962
0.074434306 0.43228568 -0.89865935
0.095478002 0.40572843 -0.90899306
0.10319094 0.38482708 -0.91720213
0.12428829 0.36156905 -0.92402394
-0.15843316 0.97967225 0.12304965
-0.1796584 0.98292582 -0.039745336
-0.21132394 0.96496207 -0.15553263
-0.22653482 0.94353611 -0.24170556
-0.22613931 0.90828739 -0.35195885
-0.21071824 0.87032541 -0.44511966
-0.20030388 0.82854691 -0.52286554
-0.18294375 0.79796851 -0.57426286
-0.16923805 0.77181346 -0.61291309
-0.14245342 0.75224579 -0.64329876
-0.11749711 0.73622425 -0.66645952
-0.09148679 0.71351282 -0.69464352
-0.080412061 0.69042602 -0.71891989
-0.058550716 0.66654523 -0.74316167
-0.041112227 0.63982622 -0.76741918
-0.023123354 0.62250935 -0.78227068
0.0022398908 0.61643052 -0.78740612
0.016453997 0.61036952 -0.7919459
0.038896375 0.59973155 -0.79925537
0.060286839 0.58904367 -0.80584927
0.074880471 0.57542101 -0.81442224
0.082372194 0.56508847 -0.82090794
0.1049614 0.547097 -0.83046251
0.11726623 0.52726717 -0.84156875
0.12135011 0.49985486 -0.8575659
0.12987304 0.47681936 -0.86935395
0.13789177 0.44929315 -0.88267861
0.14731705 0.41433288 -0.89812357
0.162433 0.39457968 -0.90439062
0.17490694 0.36803443 -0.91321313
-0.13308237 0.9755409 0.17495436
-0.15616946 0.9876976 0.0080340609
-0.18249963 0.97334613 -0.13889276
-0.19850972 0.95096679 -0.2371836
-0.18765317 0.91756455 -0.35051617
-0.18674644 0.87478383 -0.44707831
-0.17442066 0.83395318 -0.52354515
-0.15815555 0.80227206 -0.57562693
-0.13608413 0.77272955 -0.61997593
-0.11523592 0.75246526 -0.6484726
-0.0883339 0.73442939 -0.67291203
-0.065013977 0.71224545 -0.69891316
-0.04535561 0.69105854 -0.72137436
-0.025866956 0.66869128 -0.74309008
-0.0052758561 0.64057639 -0.76787633
0.019281567 0.6189002 -0.78523294
0.032560781 0.61386463 -0.78873951
0.053504248 0.60685422 -0.79301024
0.07662841 0.59197509 -0.80230517
0.091843092 0.57872799 -0.8103325
0.1057747 0.56838196 -0.81593729
0.12295468 0.55633883 -0.82180853
0.14587071 0.54301748 -0.82695451
0.15634007 0.52344322 -0.83759476
0.16650009 0.50005749 -0.84983541
0.17517657 0.47878361 -0.86027869
0.18436892 0.46006625 -0.86853161
0.20080325 0.43081278 -0.87981726
0.21553732 0.39882449 -0.89133758
0.23934604 0.36194178 -0.9009504
-0.10948664 0.97363932 0.20009783
-0.13622061 0.98991059 0.038999681
-0.15501732 0.98134155 -0.11374708
-0.16461261 0.96115045 -0.22156826
-0.15718961 0.92785693 -0.33819068
-0.15652876 0.88391721 -0.44066894
-0.15156898 0.84046225 -0.52024037
-0.13508507 0.80791853 -0.57360237
-0.11388189 0.77951355 -0.61594606
-0.088410871 0.75193987 -0.65327632
-0.060554764 0.7293199 -0.68148778
-0.039494658 0.70821228 -0.70489399
-0.012950502 0.68587292 -0.72760609
0.0089491274 0.65966718 -0.75150457
0.030054691 0.63198435 -0.77439815
0.052352207 0.61176513 -0.78930518
0.072537641 0.60325586 -0.79424219
0.085953034 0.59388274 -0.7999471
0.10404572 0.58411343 -0.80497577
0.12572769 0.57166428 -0.81079745
0.1409117 0.55940572 -0.81682871
0.15958604 0.54835612 -0.82087628
0.17164868 0.53519764 -0.82710351
0.19082596 0.52167245 -0.8315307
0.20772391 0.49729734 -0.84234561
0.21582555 0.47491452 -0.85315622
0.23990764 0.44707714 -0.8617229
0.26151101 0.42021385 -0.86892595
0.29216396 0.38171924 -0.8768869
0.32661682 0.33287652 -0.88459859
-0.095178809 0.97447901 0.20330188
-0.11849879 0.9906013 0.068316212
-0.12913316 0.9878405 -0.086578167
-0.13030827 0.9662043 -0.22241629
-0.12116363 0.93924957 -0.32113801
-0.11908558 0.89692524 -0.42584473
-0.1094085 0.84760281 -0.51922948
-0.10060285 0.81243311 -0.57430959
-0.077747163 0.77948697 -0.62157497
-0.062793399 0.75211622 -0.65603215
-0.044553206 0.72803784 -0.68408765
-0.013025884 0.7027468 -0.71132078
0.012894697 0.67351218 -0.73906364
0.038398043 0.6463794 -0.76204938
0.06057186 0.62583739 -0.77759797
0.081686997 0.60470876 -0.79224652
0.097502566 0.59337555 -0.79899856
0.11543567 0.58418282 -0.80337105
0.1338741 0.57419377 -0.80769997
0.15251803 0.56341353 -0.81197502
0.16848731 0.54913281 -0.81857509
0.17896724 0.5396229 -0.82266509
0.19743759 0.5232358 -0.82900102
0.21788695 0.51208025 -0.8308424
0.24625064 0.4887459 -0.83695166
0.25782785 0.46657145 -0.84607085
0.28933563 0.42293091 -0.85872833
0.32947204 0.39338189 -0.85831163
0.37322885 0.34411001 -0.86156168
0.40695519 0.29281419 -0.86524408
-0.077145985 0.96996665 0.23067986
-0.094695506 0.99092962 0.095348037
-0.11242234 0.99119041 -0.07001985
-0.10895881 0.97054161 -0.21488824
-0.094155827 0.94459862 -0.31443302
-0.081169121 0.9096832 -0.40729356
-0.073223465 0.86224864 -0.50116425
-0.063720839 0.81969977 -0.56923804
-0.051013383 0.77916096 -0.62474461
-0.037388856 0.75144592 -0.65873447
-0.023486071 0.7247232 -0.68863973
0.0060223025 0.69895479 -0.7151405
0.033107294 0.66517988 -0.74594881
0.061571491 0.63756857 -0.76792921
0.086340747 0.61385307 -0.78468445
0.10386668 0.59590373 -0.79631053
0.11734842 0.58190994 -0.8047423
0.13482509 0.57222868 -0.80893543
0.14951942 0.56732044 -0.80980952
0.1730082 0.55389018 -0.81441625
0.19048969 0.53965127 -0.82005499
0.20629341 0.52641032 -0.82482435
0.22350933 0.51182022 -0.82950807
0.2527619 0.492488 -0.8328067
0.29485733 0.46312677 -0.83580665
0.33107685 0.42759821 -0.84115866
0.36150167 0.37831241 -0.8521715
0.40547948 0.34154768 -0.84789833
0.43490317 0.29988553 -0.84907473
0.46938121 0.24770923 -0.84753845
-0.068830926 0.97020909 0.23228565
-0.077030225 0.99140797 0.10571935
-0.094606115 0.99462703 -0.042032796
-0.089562797 0.97874843 -0.18447225
-0.073745535 0.94653293 -0.31406531
-0.056833908 0.91430569 -0.40101747
-0.044866723 0.87122326 -0.48883228
-0.038210963 0.82589959 -0.56252092
-0.025454321 0.78221999 -0.6224821
-0.011313794 0.7497927 -0.66157608
0.0091227748 0.71800295 -0.69598028
0.035062077 0.68752892 -0.72531003
0.063445591 0.65434353 -0.75353116
0.086972207 0.62534029 -0.7754904
0.10805567 0.60680709 -0.78747008
0.11857058 0.58918524 -0.79925075
0.13264494 0.57469304 -0.80754766
0.1464512 0.56295703 -0.81340729
0.16287895 0.55387568 -0.8165122
0.19080698 0.54200156 -0.81842959
0.21421776 0.5281606 -0.82167946
0.2340258 0.51164775 -0.82670944
0.25136567 0.49704128 -0.83052108
0.28610098 0.46937943 -0.8353617
0.34585054 0.4277936 -0.83509283
0.38069826 0.38170611 -0.84224063
0.42753892 0.32694611 -0.84280289
0.4588523 0.29273927 -0.83890303
0.49122696 0.24710179 -0.83524654
0.5158272 0.20641088 -0.83145465
-0.061095331 0.97089669 0.23157501
-0.067427555 0.99193065 0.10736442
-0.08255628 0.99631493 -0.023259808
-0.078143036 0.9825322 -0.1688909
-0.0666012 0.95263683 -0.29672774
-0.039729957 0.91405695 -0.40363527
-0.023119259 0.87397593 -0.48541897
-0.010552769 0.82683395 -0.5623471
0.0037604857 0.78355939 -0.62130552
0.015025968 0.74991488 -0.66136366
0.035650492 0.71684594 -0.69631957
0.05849437 0.68138721 -0.72958199
0.093845786 0.6434724 -0.75969483
0.10695467 0.61700589 -0.77965661
0.1213577 0.60284334 -0.78857607
0.13612661 0.58620864 -0.79864196
0.14520131 0.57441219 -0.80558502
0.156131 0.55800979 -0.81501423
0.17567759 0.54209728 -0.82174687
0.20632109 0.52381637 -0.82646719
0.24090962 0.50832494 -0.8267819
0.26625731 0.49231548 -0.82869325
0.28679842 0.47217867 -0.83354302
0.33456348 0.43087045 -0.83810377
0.38669138 0.39117766 -0.83513461
0.44697664 0.31502015 -0.83724201
0.48148219 0.27225803 -0.83309691
0.49873754 0.24483568 -0.83145436
0.52651652 0.20819429 -0.82427877
0.54798397 0.1739132 -0.8182101
-0.053950951 0.97240659 0.22696852
-0.059294923 0.99108509 0.11930826
-0.071510807 0.9973534 -0.013129813
-0.074181313 0.98548063 -0.15272544
-0.057537941 0.95209647 -0.30033598
-0.031263962 0.91839839 -0.39441978
-0.0066419027 0.87438992 -0.48517848
0.013858517 0.82946429 -0.55838779
0.031321165 0.78609377 -0.61731319
0.043828041 0.74711038 -0.66325349
0.060147688 0.70879224 -0.70284836
0.090529922 0.67005653 -0.73676902
0.11193848 0.6395934 -0.7605196
0.12869356 0.61091925 -0.781163
0.13519501 0.60109883 -0.78765634
0.14897845 0.58635751 -0.79623507
0.15967033 0.56902393 -0.80667041
0.17481727 0.54941953 -0.81705391
0.19778032 0.52606859 -0.8271244
0.22817649 0.50265362 -0.83383141
0.25492676 0.48131321 -0.83865961
0.28612941 0.46773502 -0.83627383
0.32764983 0.43623505 -0.83806
0.37469724 0.39017674 -0.8410494
0.43704032 0.3391385 -0.83305512
0.49359355 0.27864254 -0.82384692
0.52024525 0.2339727 -0.82134138
0.54146466 0.198815 -0.81687736
0.55172109 0.18183037 -0.81396656
0.5604255 0.15671399 -0.81324288
-0.056094161 0.97329425 0.2226022
-0.056703984 0.99021013 0.12754825
-0.063573546 0.99797707 0.00041943347
-0.065553155 0.98845149 -0.13662515
-0.051105282 0.95892521 -0.27901738
-0.023186625 0.92112347 -0.38857937
0.0045069152 0.87632455 -0.48170008
0.029234054 0.83204311 -0.55394009
0.052986382 0.78283805 -0.61996535
0.0680865 0.74848856 -0.65964317
0.089032015 0.70534232 -0.70325352
0.11557233 0.66337686 -0.73930655
0.13520347 0.63368798 -0.76168206
0.14871786 0.60699667 -0.78066513
0.15704915 0.59450224 -0.78860804
0.16712803 0.58187067 -0.79592383
0.17727059 0.56552949 -0.80545114
0.19467697 0.5418094 -0.81764506
0.22174704 0.5109285 -0.83053014
0.24884965 0.48117819 -0.84056017
0.28122283 0.45777169 -0.84342089
0.32201532 0.4383646 -0.83913205
0.36371985 0.40099322 -0.84078077
0.41873025 0.33953147 -0.84224899
0.47954392 0.28809529 -0.828878
0.5224589 0.23993498 -0.81821018
0.54314129 0.20391991 -0.81450243
0.55614031 0.17985179 -0.81139465
0.56406593 0.16295666 -0.80949043
0.57076966 0.14197413 -0.80874306
-0.055837301 0.97183052 0.22897083
-0.059116715 0.9882372 0.14104057
-0.059290095 0.99804029 0.020006659
-0.058035393 0.98947988 -0.13251967
-0.047669156 0.95937492 -0.27807806
-0.019221543 0.91912964 -0.39348601
0.013331394 0.87154631 -0.49013192
0.045326816 0.82524702 -0.56295011
0.069148609 0.78008598 -0.62183948
0.091928405 0.73862968 -0.66781387
0.11834456 0.69651529 -0.70771535
0.13762284 0.65559566 -0.74246501
0.15328431 0.62672918 -0.76401207
0.16443093 0.60390599 -0.77991027
0.17294671 0.58672448 -0.79110291
0.1843443 0.57432547 -0.79760105
0.20192117 0.55404948 -0.8076243
0.22067859 0.52660863 -0.82096547
0.24196797 0.49508558 -0.83447095
0.27738885 0.46157726 -0.84261608
0.3092593 0.43625247 -0.84501034
0.34484777 0.4098836 -0.84443795
0.39820233 0.35481725 -0.84589575
0.45844495 0.29420285 -0.83861368
0.50531114 0.23592873 -0.8300592
0.53486308 0.19945717 -0.82105927
0.54984288 0.17648009 -0.81641141
0.56300349 0.15929864 -0.81095685
0.57254944 0.14313626 -0.80727886
0.58242786 0.12743283 -0.80283165
-0.057703019 0.97006287 0.2358991
-0.05829356 0.98506125 0.16203762
-0.058744925 0.99793793 0.02586346
-0.050519454 0.99081504 -0.1254326
-0.035095142 0.96293767 -0.26743108
-0.0099700585 0.91368005 -0.4063119
0.026201033 0.86443287 -0.50206505
0.058299529 0.81876249 -0.57116473
0.092196289 0.77101964 -0.63010202
0.12016621 0.72607191 -0.67703742
0.14206505 0.6844398 -0.71509418
0.15503513 0.64784913 -0.74582545
0.16879265 0.61944426 -0.76667976
0.17539321 0.60044385 -0.78019511
0.17975037 0.57936426 -0.79500117
0.19705966 0.56123587 -0.80385433
0.21773516 0.53851873 -0.81399569
0.24199887 0.50572226 -0.8280589
0.2686874 0.47221451 -0.83953591
0.29672766 0.44210925 -0.84645857
0.34098087 0.40464855 -0.84852318
0.38639019 0.36305188 -0.84787732
0.43856313 0.30397232 -0.84573235
0.49482163 0.23957352 -0.83531795
0.53059604 0.19947054 -0.82381997
0.54743012 0.17365802 -0.81863493
0.56115866 0.15213238 -0.81360721
0.56978743 0.13901865 -0.80994821
0.57773722 0.12594702 -0.80644718
0.58848438 0.10934427 -0.8010805
-0.057050547 0.97086399 0.23274097
-0.058782194 0.98511107 0.16155755
-0.054720104 0.99775905 0.038504273
-0.051559679 0.9913373 -0.12079716
-0.03065677 0.95956441 -0.27981477
0.0034391441 0.90858273 -0.4176908
0.034203748 0.85920391 -0.51048874
0.074338908 0.80892183 -0.58319739
0.10689836 0.76226661 -0.63837477
0.13512297 0.71525607 -0.68567524
0.15278327 0.6697008 -0.72674487
0.16651028 0.64369061 -0.74695162
0.17674291 0.6193045 -0.76499927
0.18384954 0.5978044 -0.78027511
0.19730394 0.57387158 -0.79482235
0.21604107 0.54249693 -0.81180253
0.239428 0.5163248 -0.82224263
0.26143466 0.48525406 -0.83437427
0.28729649 0.45372184 -0.84356222
0.32066399 0.41438527 -0.85173908
0.38055632 0.35565716 -0.85363041
0.42267382 0.30969386 -0.85172563
0.46585271 0.24978372 -0.84887534
0.52055808 0.19988611 -0.83009929
0.54893215 0.16847767 -0.81871165
0.56492663 0.1475208 -0.81184698
0.57355393 0.13359106 -0.80820129
0.58024534 0.11973144 -0.80559278
0.59645866 0.10454627 -0.79580597
0.60057412 0.093144565 -0.79412519
-0.041916244 0.97400008 0.22263617
-0.053432132 0.98500971 0.16401486
-0.049517286 0.99786482 0.042589172
-0.041759776 0.99274529 -0.11275151
-0.022631539 0.95958935 -0.2804926
0.0034541955 0.90782243 -0.41934056
0.042631495 0.85240405 -0.52114287
0.076527965 0.8013221 -0.5933181
0.10649562 0.74927163 -0.65364418
0.13589077 0.69180399 -0.70918329
0.15573623 0.66255638 -0.73264266
0.1682156 0.63618194 -0.75297812
0.18069879 0.61203538 -0.7699095
0.19437529 0.58607461 -0.78659697
0.21173767 0.55342591 -0.80553518
0.23369261 0.51879933 -0.8223351
0.25764468 0.49314434 -0.8309199
0.28992133 0.45640419 -0.84121391
0.32500653 0.41134866 -0.85156505
0.35866152 0.36778837 -0.85795899
0.41802213 0.30731992 -0.85487541
0.453359 0.25844433 -0.85303701
0.50733099 0.19814805 -0.83866121
0.5479442 0.15799363 -0.82145917
0.56894703 0.13491183 -0.81123244
0.58154765 0.12367913 -0.80405585
0.59280887 0.11337906 -0.79732229
0.59936989 0.10469359 -0.79359624
0.60978597 0.09166306 -0.78724771
0.61385912 0.081423085 -0.78520523
-0.041701121 0.97582829 0.21452312
-0.044510722 0.99051068 0.13002841
-0.038579896 0.99736073 0.061507422
-0.039910662 0.99520859 -0.08925811
-0.031075532 0.9641528 -0.2635217
0.0095018419 0.9114078 -0.41139463
0.039022161 0.84326505 -0.53607959
0.078945269 0.78134706 -0.61908353
0.11180224 0.7293277 -0.67496767
0.13274166 0.68644153 -0.7149669
0.14897514 0.65287314 -0.74267292
0.16784968 0.6154868 -0.77006654
0.1841253 0.590176 -0.78599629
0.21070396 0.56139889 -0.80027191
0.23424204 0.52060785 -0.82103479
0.25860338 0.48666513 -0.83443475
0.29462543 0.44940783 -0.84334362
0.32905194 0.40985155 -0.85073293
0.36602993 0.36379609 -0.85654801
0.41117149 0.3115291 -0.85667241
0.45764632 0.25204774 -0.85266159
0.49929931 0.19869113 -0.84333981
0.54297178 0.15578715 -0.82517393
0.56461624 0.12630219 -0.81563243
0.58301905 0.10775328 -0.80528133
0.59700349 0.10073773 -0.79588865
0.60872771 0.093134556 -0.78789373
0.61947119 0.082524902 -0.78066964
0.63024443 0.074170108 -0.77284588
0.63565412 0.060682955 -0.76958522
-0.035626555 0.97668556 0.21169805
-0.036560857 0.9910107 0.12868991
-0.032887311 0.99863206 0.040650041
-0.037276795 0.99463838 -0.096462055
-0.021642072 0.96320951 -0.26787881
0.011432367 0.906891 -0.42121019
0.046980515 0.82439131 -0.56406719
0.082799617 0.75843768 -0.64646462
0.11305216 0.70227796 -0.70286903
0.1343434 0.6573974 -0.74147185
0.15005042 0.6273391 -0.76415347
0.17056861 0.59506213 -0.78537087
0.19607834 0.5614362 -0.8039544
0.23344613 0.5087611 -0.82865255
0.25791823 0.47654117 -0.84046814
0.29548056 0.44327404 -0.84628563
0.33606385 0.41134664 -0.84726326
0.37414029 0.36346122 -0.85317934
0.41677247 0.31046548 -0.85434881
0.46578473 0.25177013 -0.84832563
0.49930119 0.2051663 -0.84178685
0.53346023 0.16353577 -0.82986519
0.57123964 0.12264949 -0.81156785
0.5866594 0.10084137 -0.80353081
0.60199531 0.084567612 -0.79400879
0.6183261 0.074864445 -0.78234784
0.63104332 0.066619821 -0.7728817
0.64359249 0.057969464 -0.76316987
0.65093997 0.052893231 -0.75728427
0.66017896 0.042861088 -0.74988444
-0.031770636 0.97822241 0.20511349
-0.031498473 0.99092652 0.13066169
-0.022832232 0.99953154 0.020381051
-0.014412907 0.9902754 -0.13837234
-0.013138486 0.96309484 -0.26884141
0.031254519 0.88439573 -0.46569019
0.058424937 0.79418097 -0.60486619
0.08959404 0.72642334 -0.68138244
0.12347804 0.67331749 -0.72896963
0.14133256 0.63830425 -0.75669861
0.15532591 0.61097996 -0.77625856
0.18453333 0.57533399 -0.79683013
0.22334481 0.52261796 -0.82279254
0.27243416 0.46183477 -0.8440902
0.30409178 0.41903181 -0.85553523
0.33833499 0.39581625 -0.85373235
0.38352707 0.36238967 -0.84945907
0.42561988 0.31503986 -0.84829099
0.47041653 0.26013957 -0.84322932
0.50663585 0.20188067 -0.83819109
0.53418244 0.15985006 -0.83011872
0.56875176 0.12777055 -0.81252454
0.59745585 0.098277131 -0.79585684
0.61265818 0.077010203 -0.78658718
0.62645975 0.063505463 -0.77686243
0.6400388 0.050546616 -0.76667814
0.65134183 0.04238679 -0.75759962
0.6619678 0.035124364 -0.74870883
0.66857868 0.032673998 -0.74292326
0.6744323 0.028415001 -0.73778971
-0.037372212 0.98020411 0.1944305
-0.031173028 0.99145503 0.12666948
-0.034080663 0.99922594 -0.019647401
0.0049166334 0.98775401 -0.15594181
0.010067407 0.94611959 -0.32366088
0.041781004 0.87969188 -0.47370513
0.068524916 0.76362394 -0.64201465
0.10555213 0.7009021 -0.70540414
0.13768392 0.65524868 -0.74275992
0.15805161 0.623093 -0.76601227
0.1895631 0.57834367 -0.79346356
0.22360927 0.53315919 -0.81592903
0.29911482 0.45882188 -0.83666768
0.33743987 0.40974162 -0.84749404
0.37552006 0.36036141 -0.85388778
0.40946662 0.33634393 -0.84806241
0.43657789 0.31468265 -0.84283722
0.47503863 0.26663787 -0.83859558
0.51304794 0.21346559 -0.83139296
0.54842696 0.15918986 -0.82090588
0.57161165 0.11881655 -0.81187607
0.59769168 0.10067705 -0.79537965
0.61720418 0.079764263 -0.78274942
0.63440643 0.060187559 -0.77065293
0.64310735 0.047757372 -0.7642854
0.65450096 0.034220977 -0.75528632
0.66157213 0.024394345 -0.74948465
0.67145477 0.021222633 -0.74074158
0.67798224 0.019900332 -0.73480886
0.67963679 0.016786063 -0.73335671
-0.022487712 0.97932529 0.20103801
-0.026338063 0.99223868 0.12152656
-0.012356296 0.99937491 -0.033122747
0.0072084001 0.98271341 -0.18499297
0.026406888 0.93650208 -0.34966632
0.05677278 0.8526746 -0.51934851
0.087263866 0.73502592 -0.67240012
0.1310436 0.66939617 -0.73125669
0.16875157 0.62088941 -0.76551894
0.20192838 0.58678678 -0.78415955
0.25565818 0.53381342 -0.80602861
0.30744041 0.47905139 -0.82218621
0.36553484 0.40512128 -0.83801016
0.41215044 0.34638335 -0.84270433
0.4336124 0.3154075 -0.8440962
0.4573184 0.30008944 -0.83714169
0.48399044 0.2748141 -0.8308011
0.51038929 0.22721042 -0.82938423
0.54848434 0.16280643 -0.82015791
0.57481472 0.1245623 -0.80874734
0.59398648 0.095026302 -0.79884295
0.61382729 0.072094049 -0.78614153
0.63615669 0.060347369 -0.76919624
0.65204331 0.045616266 -0.75680822
0.66088339 0.035083595 -0.74966812
0.66823705 0.024370951 -0.74354913
0.67593571 0.013113194 -0.73684392
0.68001954 0.013198208 -0.73307519
0.68190709 0.013359984 -0.73131678
0.68393142 0.011823242 -0.7294505
-0.003746406 0.98278906 0.18469333
0.0011047418 0.99792294 0.064409557
0.011853923 0.99741101 -0.070927905
0.025522185 0.97402477 -0.2249986
0.040211669 0.92047379 -0.38873002
0.079428718 0.8171819 -0.57088074
0.13135894 0.70292516 -0.69902865
0.17657389 0.63602357 -0.75119617
0.22143526 0.58941753 -0.77688699
0.25053911 0.55175064 -0.79548815
0.31068709 0.48443838 -0.81779765