# vtk DataFile Version 2.0
Grain example
ASCII
DATASET UNSTRUCTURED_GRID
POINTS 900 float
22.315024 -0.43618458 -5.7238207
22.334028 -0.46144839 -5.257823
22.345619 -0.49086455 -4.788359
22.343803 -0.50603935 -4.3040891
22.303018 -0.5230136 -3.8286006
22.244815 -0.55026465 -3.3364128
22.162431 -0.58452811 -2.8306164
22.053452 -0.61716998 -2.2777738
21.921746 -0.65443206 -1.6939668
21.762748 -0.69807975 -1.0987667
21.570108 -0.74250717 -0.47889494
21.348484 -0.76599877 0.13403179
21.107134 -0.78394053 0.74820833
20.822752 -0.78232501 1.3832425
20.49609 -0.76979229 2.0319604
20.164812 -0.75392404 2.6795721
19.832483 -0.71767413 3.3031157
19.460449 -0.68865315 3.9469853
19.03147 -0.69466553 4.6398773
18.568848 -0.72634899 5.3487112
17.972065 -0.71167384 6.1737928
17.315326 -0.6797875 7.0024394
16.620704 -0.67263652 7.8371394
15.916966 -0.64357995 8.6384623
15.189308 -0.61913828 9.4800952
14.492385 -0.62852025 10.26475
13.823991 -0.613431 11.035598
13.172939 -0.59410763 11.768087
12.515006 -0.57215207 12.5212
11.910079 -0.51745015 13.227873
21.963894 -1.277971 -5.6788022
21.976677 -1.3079451 -5.2087771
21.991372 -1.3373772 -4.7365469
21.981725 -1.3676344 -4.2452325
21.94357 -1.3982353 -3.7381285
21.871161 -1.4413228 -3.2314129
21.777541 -1.5028698 -2.6910682
21.66147 -1.56236 -2.1412075
21.543097 -1.6191725 -1.5770962
21.399269 -1.6569827 -0.97688456
21.223368 -1.7096588 -0.36339096
20.993729 -1.7435513 0.2329072
20.731896 -1.7553974 0.84815295
20.432673 -1.7533799 1.4841372
20.115675 -1.7294144 2.1380182
19.771078 -1.7180854 2.7973342
19.403063 -1.7060303 3.4363307
19.026405 -1.7226268 4.1178982
18.615162 -1.7480224 4.8298889
18.142464 -1.7639201 5.571795
17.578545 -1.7479997 6.3927506
16.937555 -1.7167613 7.2487973
16.227392 -1.6779412 8.1122248
15.537316 -1.658898 8.9479203
14.839613 -1.6191218 9.7713278
14.162777 -1.5643714 10.54809
13.499805 -1.5352551 11.307908
12.855292 -1.5036117 12.040587
12.254389 -1.4452442 12.733374
11.749338 -1.3755008 13.362742
21.581525 -2.0192881 -5.6260183
21.599446 -2.0899998 -5.1467584
21.62044 -2.1554464 -4.6738417
21.607712 -2.225255 -4.1656986
21.545684 -2.3044622 -3.6130957
21.45657 -2.3663332 -3.0828876
21.359542 -2.4365468 -2.539589
21.260061 -2.5029639 -1.9950388
21.149295 -2.5543485 -1.4469426
20.997807 -2.6258801 -0.85646741
20.809827 -2.6866262 -0.24724461
20.601511 -2.7136645 0.34662023
20.338334 -2.7320301 0.94085883
20.007777 -2.7350954 1.5857959
19.652831 -2.7412782 2.2546343
19.300899 -2.7300158 2.9003792
18.932501 -2.7461028 3.5898093
18.562164 -2.7630118 4.290635
18.155098 -2.7968871 5.0125459
17.702606 -2.8122049 5.7592001
17.143478 -2.8268072 6.5740666
16.509826 -2.8009181 7.4422389
15.842048 -2.777684 8.3468267
15.177829 -2.7230932 9.1824578
14.500366 -2.659385 9.9945574
13.845483 -2.6026648 10.774664
13.181533 -2.5175595 11.547928
12.612621 -2.4404365 12.219614
12.134679 -2.3295253 12.844735
11.656865 -2.2131257 13.435054
21.190259 -2.7258534 -5.5773953
21.205171 -2.8006623 -5.0906722
21.215008 -2.873829 -4.6070042
21.169202 -2.9822556 -4.0525338
21.109345 -3.080023 -3.4870876
21.020601 -3.1811094 -2.9505337
20.9289 -3.27753 -2.4123899
20.816092 -3.3885448 -1.8647734
20.693277 -3.505684 -1.303923
20.523894 -3.6112274 -0.70485744
20.331208 -3.6786982 -0.13372066
20.122775 -3.7155727 0.43722529
19.86324 -3.7323166 1.0500806
19.532362 -3.7541673 1.7054245
19.183319 -3.7548019 2.3637694
18.825827 -3.7673377 3.045376
18.457819 -3.7820871 3.7363701
18.078091 -3.7954508 4.4320037
17.670877 -3.8183925 5.1567736
17.187825 -3.8541668 5.95116
16.669219 -3.8969757 6.7801728
16.090527 -3.8922278 7.6332639
15.479793 -3.8438188 8.4955783
14.849829 -3.7668642 9.3483804
14.205259 -3.674073 10.168218
13.579497 -3.5609893 10.93312
13.020555 -3.4213161 11.641932
12.532592 -3.2870014 12.284543
12.049971 -3.1748374 12.89967
11.583737 -3.03853 13.473335
20.775215 -3.4332456 -5.5091842
20.778958 -3.5159707 -5.025778
20.754274 -3.63258 -4.5014602
20.693016 -3.7553391 -3.9460916
20.608145 -3.8790434 -3.371095
20.50809 -3.9909765 -2.8267678
20.394091 -4.1035613 -2.2816422
20.273425 -4.2281199 -1.725609
20.149811 -4.3529782 -1.1724871
19.998036 -4.4603176 -0.58704079
19.811571 -4.5585867 -0.010547054
19.600633 -4.6472717 0.55272785
19.345552 -4.7061848 1.1520839
19.050787 -4.7292325 1.8248119
18.715532 -4.7631946 2.499934
18.351385 -4.7730483 3.1710735
17.977544 -4.7868217 3.8577282
17.587323 -4.813243 4.5598609
17.169347 -4.83827 5.3043254
16.690257 -4.8542384 6.1202517
16.225726 -4.860137 6.9410196
15.732436 -4.8430862 7.7534021
15.163848 -4.7984804 8.60751
14.577995 -4.7267665 9.4422578
13.977574 -4.6112769 10.260998
13.433867 -4.472919 10.98747
12.929728 -4.3238501 11.665426
12.449782 -4.1758024 12.306875
11.979509 -4.0216437 12.931307
11.513649 -3.8790815 13.500579
20.319477 -4.1122572 -5.4655257
20.306566 -4.2310993 -4.9465708
20.251629 -4.3717807 -4.4018208
20.180443 -4.5076 -3.8394499
20.0936 -4.6327131 -3.2675005
19.992991 -4.7575975 -2.7076732
19.873841 -4.8883115 -2.1558723
19.750887 -5.0129371 -1.60195
19.617584 -5.1327168 -1.0390148
19.457636 -5.2490302 -0.47597977
19.2666 -5.3594739 0.10617817
19.052837 -5.4559286 0.68068341
18.803611 -5.5494214 1.2816311
18.524975 -5.6116431 1.9332213
18.236177 -5.6448734 2.5881654
17.920482 -5.671216 3.2530309
17.555659 -5.6687395 3.9417048
17.159306 -5.683748 4.6556521
16.733617 -5.7136184 5.4235076
16.2779 -5.7257864 6.225655
15.815291 -5.7384607 7.0402535
15.356193 -5.7465794 7.8456534
14.823875 -5.6873421 8.69073
14.30819 -5.6119289 9.4945907
13.819064 -5.5126219 10.27005
13.330441 -5.3760429 10.993937
12.849265 -5.2240367 11.674313
12.370438 -5.0703201 12.321911
11.89735 -4.8967302 12.933717
11.438911 -4.7378778 13.510555
19.884 -4.7045345 -5.4220851
19.836545 -4.8712559 -4.8665305
19.78704 -5.019704 -4.3100895
19.70992 -5.1623637 -3.7453692
19.624114 -5.3009738 -3.17087
19.522115 -5.4430613 -2.6001572
19.390059 -5.5739594 -2.0462075
19.260349 -5.6927969 -1.4930761
19.122851 -5.8193076 -0.92613355
18.975461 -5.9195576 -0.38583647
18.798505 -6.0143784 0.17454582
18.580954 -6.0975735 0.75770347
18.346485 -6.1970677 1.3802987
18.079231 -6.2708578 1.9968761
17.793592 -6.3160841 2.6437524
17.494586 -6.3604503 3.3141353
17.157385 -6.3936593 4.0124882
16.758079 -6.4559496 4.7467666
16.343393 -6.5192128 5.5114933
15.882751 -6.5413788 6.3140261
15.433397 -6.5570556 7.1169512
15.004593 -6.5540221 7.891413
14.520376 -6.5032091 8.7040982
14.059494 -6.4161969 9.4910877
13.615639 -6.3142021 10.242746
13.213054 -6.208164 10.950033
12.756751 -6.0677214 11.657802
12.291767 -5.9153531 12.313107
11.822792 -5.7468606 12.917025
11.353534 -5.58029 13.512003
19.429041 -5.3055998 -5.3624399
19.373675 -5.4933088 -4.7775167
19.319007 -5.6580585 -4.2266309
19.251955 -5.8031345 -3.6550856
19.175152 -5.9314523 -3.0770531
19.089789 -6.0369985 -2.5137617
18.976825 -6.1379887 -1.9710563
18.859446 -6.2389235 -1.4253183
18.726357 -6.3553153 -0.85911415
18.574748 -6.4547951 -0.32189627
18.394656 -6.5423987 0.21447322
18.158451 -6.6389214 0.83127392
17.923103 -6.7377814 1.4536584
17.672769 -6.8243001 2.0668894
17.402358 -6.8860946 2.6915345
17.108537 -6.9255074 3.3571829
16.760418 -7.0008493 4.0872891
16.386279 -7.0699384 4.8275275
15.972435 -7.1376041 5.5924798
15.538525 -7.1811335 6.3769974
15.112255 -7.2188884 7.1530029
14.696509 -7.2454863 7.91864
14.273923 -7.1946913 8.6896858
13.837346 -7.1207644 9.4535953
13.430698 -7.0195486 10.196238
13.02519 -6.9168598 10.911742
12.617471 -6.8060508 11.622235
12.18704 -6.6698932 12.269477
11.74558 -6.5169749 12.887366
11.282781 -6.3551177 13.494259
18.990528 -5.8329538 -5.2904994
18.948205 -6.0436404 -4.7008868
18.904469 -6.215683 -4.1607121
18.832903 -6.3607356 -3.5931902
18.760715 -6.4701328 -3.0215943
18.692896 -6.5723666 -2.4534574
18.586688 -6.6687275 -1.9143755
18.460438 -6.7786302 -1.3569697
18.324167 -6.8899932 -0.79598702
18.171586 -6.9798701 -0.27173753
17.965557 -7.0775648 0.28774983
17.735699 -7.1808981 0.90404909
17.502232 -7.2700913 1.5160795
17.266616 -7.3426608 2.1204679
17.017834 -7.406523 2.7487313
16.706396 -7.4896584 3.4282785
16.372027 -7.5692175 4.1564618
16.026561 -7.6405077 4.8856858
15.641292 -7.6908513 5.6520668
15.231413 -7.7158554 6.4176864
14.811144 -7.7447963 7.1938448
14.424171 -7.7487956 7.9314015
14.049818 -7.7516269 8.6752497
13.653064 -7.6976214 9.4116258
13.255079 -7.6145769 10.154196
12.854756 -7.5189202 10.87837
12.440874 -7.4188823 11.597846
12.048404 -7.2991753 12.225979
11.616427 -7.1629171 12.858049
11.177411 -7.0225882 13.47363
18.602856 -6.2906136 -5.248501
18.538692 -6.5322572 -4.6371762
18.493934 -6.7177215 -4.0823509
18.433333 -6.8559305 -3.5404287
18.361668 -6.9754189 -2.9775321
18.292835 -7.0861271 -2.4110616
18.191245 -7.1853162 -1.8634724
18.065495 -7.2939607 -1.3044757
17.928517 -7.4009709 -0.7540528
17.757678 -7.5039587 -0.21642996
17.540626 -7.6095684 0.37457368
17.329008 -7.703901 0.96680827
17.10013 -7.7806562 1.5664903
16.874059 -7.8499039 2.1616257
16.609305 -7.938646 2.8085008
16.323495 -8.042721 3.4919829
16.005209 -8.1281344 4.2084353
15.677908 -8.1983849 4.9271162
15.310295 -8.2288731 5.6779047
14.920203 -8.2465122 6.4488835
14.534265 -8.2529447 7.203346
14.168388 -8.2574891 7.9332795
13.837098 -8.2592756 8.6498561
13.460914 -8.2048828 9.3755185
13.061517 -8.1359917 10.117846
12.669476 -8.072318 10.841203
12.273061 -7.997897 11.563464
11.890853 -7.8801906 12.195506
11.481463 -7.7569133 12.815196
11.051144 -7.6186141 13.450605
18.209678 -6.7594695 -5.2077289
18.150336 -6.9910411 -4.5968131
18.101498 -7.1812425 -4.0221854
18.036765 -7.3208167 -3.4782651
17.966907 -7.4637678 -2.9281252
17.8932 -7.5839079 -2.3745887
17.789586 -7.6884137 -1.8267018
17.665785 -7.7992756 -1.2679736
17.525543 -7.9137386 -0.70642542
17.357776 -8.0122638 -0.14811628
17.154752 -8.1028176 0.4344304
16.952057 -8.1880446 1.0151711
16.734338 -8.2626734 1.5920815
16.490423 -8.3476583 2.2020458
16.224033 -8.455651 2.8577256
15.948215 -8.5532376 3.5387046
15.652427 -8.6539958 4.2405514
[...]
POINT_DATA 900
VECTORS normals float
0.91881375 -0.36840524 -0.14162934
0.92392731 -0.37469526 -0.077212568
0.92910672 -0.36827136 -0.033717992
0.93101331 -0.36473521 0.013507231
0.93242288 -0.35608316 0.061582028
0.93281135 -0.34644697 0.099184044
0.92929069 -0.34452871 0.1331119
0.92592397 -0.34133256 0.1617309
0.92086962 -0.32768378 0.21124035
0.91488793 -0.31201891 0.25617237
0.90543169 -0.30384093 0.29643573
0.89318848 -0.29768196 0.33704568
0.88428332 -0.28758529 0.36788275
0.87469258 -0.28369354 0.39297693
0.8630489 -0.27472065 0.42388107
0.85080505 -0.26077023 0.45621229
0.84036051 -0.25491072 0.47834584
0.83082857 -0.23745774 0.50332664
0.81929158 -0.22585491 0.52702075
0.80342824 -0.21133078 0.55663486
0.78788985 -0.18462547 0.58748875
0.77570224 -0.16585791 0.60891476
0.76356782 -0.14077399 0.6301959
0.75485999 -0.11469114 0.64578041
0.74875074 -0.098537127 0.65548666
0.74582742 -0.08127519 0.66116247
0.74523446 -0.062790645 0.66383954
0.74341333 -0.037737562 0.6677668
0.734679 -0.016508713 0.678214
0.7224869 0.014811655 0.69122594
0.89910708 -0.41078784 -0.15119463
0.90829528 -0.40949724 -0.085508477
0.91558658 -0.40111951 -0.028361181
0.91848381 -0.39523842 0.013193953
0.91811206 -0.39094906 0.065031417
0.91741072 -0.38701094 0.0926288
0.91603728 -0.3816578 0.12334106
0.91305539 -0.37644215 0.15691135
0.90804378 -0.36702432 0.20186542
0.90274467 -0.35090853 0.24882778
0.89447776 -0.33820602 0.29244866
0.88215366 -0.32908006 0.33691427
0.87129363 -0.32585914 0.36696488
0.8610557 -0.32135801 0.39409657
0.85237176 -0.30966998 0.42138685
0.84407128 -0.29395188 0.44848185
0.83607448 -0.28425199 0.4692337
0.83066025 -0.26683807 0.4886727
0.81840081 -0.24752422 0.51860569
0.8053836 -0.23144911 0.54570008
0.79536677 -0.20442492 0.57061559
0.78266944 -0.17233741 0.59810397
0.77235749 -0.1448798 0.61844462
0.76347961 -0.12559504 0.63350199
0.75719217 -0.10701298 0.64436654
0.75525094 -0.086095936 0.6497565
0.7557615 -0.067499125 0.65135891
0.75753677 -0.048026573 0.65102342
0.74888749 -0.029272808 0.66205032
0.73979241 -0.010859754 0.67274754
0.88066804 -0.45050492 -0.14652346
0.88957358 -0.44812023 -0.088583871
0.89469552 -0.44481146 -0.040776212
0.89832347 -0.43932481 0.0029413798
0.89796269 -0.43708599 0.051174765
0.89530907 -0.43829927 0.079469614
0.89631046 -0.42906856 0.11192732
0.89571709 -0.4198873 0.14623802
0.89308569 -0.40832752 0.18885599
0.88667735 -0.39604866 0.23863936
0.87816021 -0.38249113 0.28728936
0.86917998 -0.36670844 0.3317395
0.86141584 -0.36049578 0.35777863
0.8548484 -0.34625392 0.3864485
0.8484644 -0.33554939 0.40928569
0.84116936 -0.31773308 0.43758405
0.83532737 -0.30847585 0.45505037
0.83005244 -0.29161024 0.47536977
0.82109303 -0.27531519 0.50000778
0.81043082 -0.25984436 0.52505504
0.79890972 -0.22719684 0.55688854
0.78974886 -0.1905201 0.58309419
0.78180254 -0.16244709 0.60199313
0.7732932 -0.13565784 0.61936627
0.76717167 -0.11147417 0.6316812
0.76780517 -0.089938579 0.63433924
0.76860506 -0.070239191 0.63585589
0.766744 -0.055247135 0.63957125
0.75876355 -0.039041872 0.65019505
0.7490171 -0.026375145 0.66202548
0.85915733 -0.4879007 -0.15427766
0.86559313 -0.4911832 -0.097404267
0.87081605 -0.48933699 -0.047209369
0.87090246 -0.49145004 -0.0023994624
0.87359515 -0.48439929 0.046785075
0.87457744 -0.47884136 0.07632333
0.87312482 -0.47761765 0.097644398
0.87346715 -0.46713712 0.13725179
0.8677153 -0.46618571 0.17245589
0.86399751 -0.4546408 0.21635631
0.86091288 -0.43385615 0.26570256
0.85570537 -0.42152539 0.30014109
0.8525091 -0.39442989 0.34300626
0.84555526 -0.37991465 0.37510153
0.84224639 -0.36585814 0.39594045
0.83873516 -0.35306429 0.41457079
0.83307966 -0.33935238 0.43682747
0.82914375 -0.32454523 0.45518242
0.82221467 -0.30760008 0.47890003
0.81206442 -0.29079774 0.50595262
0.80739536 -0.25600912 0.53157508
0.79914304 -0.21909973 0.55979078
0.79123681 -0.18843047 0.58175448
0.78415359 -0.15468743 0.60097833
0.78122535 -0.12325946 0.61195919
0.77952979 -0.096716529 0.61885315
0.77862989 -0.078073381 0.62260746
0.77538673 -0.064470765 0.62818702
0.76510431 -0.051831948 0.64181683
0.7555144 -0.042838779 0.65372993
0.82670136 -0.5406591 -0.15573243
0.83540911 -0.54063485 -0.099023112
0.83706152 -0.54466152 -0.05168975
0.84064968 -0.5414514 -0.011768384
0.84383673 -0.53614256 0.022152549
0.84684836 -0.52915347 0.053333388
0.84791028 -0.52362344 0.082865259
0.84944222 -0.51618132 0.1095662
0.84752092 -0.51110874 0.1430949
0.848649 -0.49738626 0.18000493
0.84730551 -0.4797381 0.22786999
0.84526503 -0.4638854 0.26521193
0.84019046 -0.4430295 0.31273766
0.83684778 -0.42396464 0.34632323
0.83554013 -0.40967609 0.36611226
0.82878013 -0.39852475 0.39281234
0.82738609 -0.38315723 0.41063707
0.82425112 -0.36388487 0.43381781
0.8204933 -0.34808621 0.45346084
0.81658528 -0.3149732 0.48371516
0.81421782 -0.28647784 0.50495523
0.80720925 -0.25367705 0.53297391
0.80082326 -0.22213631 0.55618124
0.80101403 -0.17862809 0.57137425
0.79899714 -0.14003955 0.58480125
0.79165059 -0.11532952 0.59999037
0.78768623 -0.09317015 0.60899075
0.78192479 -0.079331958 0.61830418
0.76988569 -0.071364372 0.63417911
0.75876236 -0.055363099 0.64901049
0.80175806 -0.57479417 -0.16369387
0.81018018 -0.5768773 -0.10402235
0.81393642 -0.5775303 -0.062978186
0.81831019 -0.57422886 -0.025092988
0.82284431 -0.56826364 0.0019165713
0.8280904 -0.5595086 0.034877169
0.82898596 -0.5560334 0.060076053
0.82889348 -0.55287422 0.08523903
0.82995823 -0.54539753 0.11709344
0.82822188 -0.53876058 0.15422567
0.82724233 -0.52430152 0.20193575
0.81763449 -0.52231059 0.2422096
0.81695665 -0.49878588 0.28947274
0.81763393 -0.48007641 0.31780717
0.81469393 -0.47097704 0.33831115
0.81265431 -0.457743 0.36064432
0.81487752 -0.4315782 0.38693007
0.81793271 -0.40589857 0.40771611
0.81693432 -0.38758227 0.42708115
0.81703848 -0.35992382 0.45044752
0.81634197 -0.32330767 0.47859997
0.81339041 -0.2922182 0.50299559
0.81343912 -0.25382357 0.52334539
0.81194022 -0.21440024 0.54294163
0.80857703 -0.17357901 0.56220416
0.80212057 -0.14440225 0.57943988
0.79367037 -0.12024221 0.59634651
0.78352524 -0.099635499 0.61331963
0.77293386 -0.088049752 0.62834742
0.76414197 -0.07763031 0.64035973
0.78382893 -0.5982807 -0.16635026
0.79510763 -0.59573144 -0.11361301
0.79892206 -0.5963418 -0.078102481
0.80306196 -0.59460566 -0.039186668
0.80539892 -0.5926971 -0.0065369408
0.80798355 -0.58865972 0.02534382
0.81146647 -0.5819581 0.053356773
0.81217372 -0.57835445 0.076681035
0.81270032 -0.57304583 0.10553041
0.81125062 -0.5665348 0.14460549
0.80855866 -0.55717385 0.18918299
0.80306947 -0.54614265 0.23834352
0.80254366 -0.5307799 0.2723901
0.8038796 -0.51322729 0.30062492
0.80263984 -0.5038143 0.31928112
0.80729361 -0.48685205 0.33354476
0.80912489 -0.4685181 0.35469383
0.81059037 -0.45021845 0.37449513
0.80920533 -0.42671403 0.40385873
0.81194919 -0.397686 0.42729891
0.81194715 -0.3691724 0.45216541
0.81577382 -0.33149612 0.47394451
0.82025453 -0.29438602 0.49042775
0.81859936 -0.25415201 0.5150746
0.81492531 -0.22356534 0.53471046
0.80897971 -0.18808487 0.55693439
0.79823043 -0.15872099 0.58106439
0.78699111 -0.13635956 0.60170679
0.77592749 -0.11507275 0.62023769
0.76719822 -0.10206676 0.63323714
0.77102819 -0.61404129 -0.16872707
0.77817868 -0.61634288 -0.12066232
0.78324611 -0.61569028 -0.086319222
0.78843994 -0.61371062 -0.041493806
0.79244781 -0.60985388 -0.010232623
0.79443545 -0.60711099 0.016986705
0.79809493 -0.60089902 0.044326732
0.79958465 -0.59667079 0.068178877
0.79865007 -0.59395257 0.096842205
0.79789258 -0.58753218 0.1348086
0.7956142 -0.57945918 0.17670627
0.79513367 -0.56184042 0.22824942
0.79405023 -0.54769436 0.2636572
0.79476111 -0.53756505 0.28174208
0.7932222 -0.52892311 0.30172649
0.79923766 -0.51330877 0.31262322
0.80292889 -0.49358271 0.33418753
0.80546707 -0.47250573 0.35771656
0.80550433 -0.4504528 0.38503903
0.80928733 -0.42982429 0.40038118
0.81295109 -0.39893214 0.42422126
0.81849481 -0.36630853 0.4425882
0.82071256 -0.33514761 0.46271696
0.82030508 -0.29957003 0.48719337
0.81584664 -0.26320186 0.51489712
0.80988913 -0.23696817 0.53658707
0.7997763 -0.20555552 0.56400779
0.79082046 -0.18006443 0.58496137
0.77981281 -0.1490126 0.6080191
0.77039305 -0.13420815 0.62328382
0.75874181 -0.62721773 -0.17580895
0.76435032 -0.63246137 -0.12554359
0.77014229 -0.63165131 -0.0888678
0.77602516 -0.6288879 -0.047801224
0.78123029 -0.62413111 -0.01181523
0.78409084 -0.6205744 0.0094322498
0.78513052 -0.61836952 0.03448475
0.78718149 -0.61376814 0.060282504
0.78792427 -0.60921627 0.089615181
0.78778794 -0.60262496 0.12741004
0.78975477 -0.58995499 0.16804913
0.79087013 -0.57225508 0.21690681
0.79124551 -0.5582972 0.24946899
0.79280931 -0.5454588 0.2718972
0.79405916 -0.53491942 0.28867156
0.79916606 -0.52129582 0.29930633
0.79935497 -0.50590564 0.32417761
0.80209645 -0.4905562 0.34058171
0.79968084 -0.47720953 0.36439213
0.80463456 -0.45592637 0.38038713
0.80935019 -0.42710082 0.40315898
0.8152151 -0.39673752 0.42192853
0.81902452 -0.36638722 0.44154188
0.8182495 -0.33464151 0.46742145
0.81524177 -0.30599837 0.49167658
0.80867764 -0.27565056 0.51967032
0.80027643 -0.2514616 0.54435714
0.79157698 -0.22556627 0.5679135
0.78210469 -0.19671689 0.59128227
0.77251133 -0.17401887 0.61069115
0.74580307 -0.64182931 -0.1784178
0.75199293 -0.64541738 -0.13395161
0.75865075 -0.64479327 -0.093223782
0.76751749 -0.63882774 -0.053066182
0.77056598 -0.63701355 -0.021019054
0.77501159 -0.63194118 0.0027161707
0.77825928 -0.62735433 0.027185022
0.7802767 -0.62358548 0.048056436
0.78203463 -0.61819519 0.079098334
0.78393168 -0.60991512 0.11599424
0.78610329 -0.5953151 0.16625748
0.78761556 -0.58004048 0.20788163
0.78940052 -0.56613701 0.23735143
0.79129791 -0.55359667 0.25957339
0.79402357 -0.54223872 0.27477944
0.79649728 -0.53084447 0.28947579
0.79899352 -0.51647806 0.30799315
0.80066927 -0.50253677 0.32616793
0.79931665 -0.48952928 0.34850249
0.80546267 -0.46469613 0.36781434
0.81295039 -0.43546752 0.38662605
0.81714396 -0.4132919 0.40182777
0.82060676 -0.38605756 0.42138356
0.82031547 -0.3599618 0.44442101
0.8145485 -0.33417202 0.47417275
0.80582469 -0.31314581 0.50257961
0.79750502 -0.29354254 0.52708493
0.79080272 -0.26748237 0.55053088
0.78098547 -0.24350198 0.57512475
0.76939962 -0.22082662 0.59938287
0.73275512 -0.65466959 -0.18568163
0.74487206 -0.65261276 -0.13878832
0.75037332 -0.65394622 -0.096406573
0.75713439 -0.65071134 -0.057639142
0.76226499 -0.64662073 -0.028874193
0.7672327 -0.64134549 -0.0054722981
0.77199929 -0.63534777 0.018716238
0.7770571 -0.62790274 0.043822444
0.77995446 -0.62119999 0.076036909
0.78269399 -0.61192808 0.11372834
0.78472136 -0.59991267 0.15593966
0.78946996 -0.58212328 0.19460133
0.78888731 -0.57024811 0.22907183
0.79050213 -0.55869609 0.25092838
0.79409768 -0.54651695 0.26594756
0.79436901 -0.53847542 0.2811087
0.79775031 -0.52356108 0.29912915
0.80285347 -0.50732028 0.31313326
0.80424277 -0.49169989 0.33380351
0.80921961 -0.46973911 0.35285802
0.814149 -0.44416668 0.37400182
0.81894504 -0.42384304 0.38689287
0.8199932 -0.40287239 0.40657715
0.81909858 -0.37855315 0.43101628
0.81424609 -0.35521451 0.45915787
0.80391899 -0.33367855 0.4923138
0.7948215 -0.31438142 0.51905982
0.78963357 -0.29831984 0.53617544
0.77903405 -0.28108918 0.56044163
0.7693538 -0.26276998 0.58227714
0.72358376 -0.66285576 -0.19248059
0.73446936 -0.66209544 -0.14894427
0.74357512 -0.66049948 -0.10409836
0.74962946 -0.65850546 -0.066529982
0.75770317 -0.65155537 -0.036898679
0.76261553 -0.64667584 -0.015097033
0.76868728 -0.63956408 0.0088114851
0.77343829 -0.63279665 0.036899939
0.77888919 -0.62292537 0.07277093
0.78093485 -0.61599473 0.1033985
0.78523757 -0.59946829 0.15504751
0.78845129 -0.58538351 0.18886693
0.78877051 -0.57407573 0.21972288
0.78924694 -0.56443487 0.241873
0.79132028 -0.55696481 0.25219519
0.79179791 -0.5473807 0.27098053
0.7960798 -0.53088858 0.29054133
0.79845355 -0.52199713 0.29998488
0.80347724 -0.50500341 0.31527113
0.81137983 -0.47774707 0.33677962
0.81591638 -0.45208169 0.36042004
0.81978951 -0.43365065 0.37402175
0.8195513 -0.41566882 0.39440474
0.81633774 -0.39820474 0.41836071
0.81378682 -0.37448037 0.44442713
0.80302018 -0.35499248 0.47868458
0.79404825 -0.33450382 0.50753775
0.78690676 -0.32068684 0.52719797
0.77735612 -0.30195767 0.55185055
0.76868457 -0.2878375 0.57120365
0.71532162 -0.66881476 -0.20248899
0.72272491 -0.6726285 -0.1588698
0.7355582 -0.66707509 -0.11817344
0.74411454 -0.66348479 -0.077983861
0.75236115 -0.65716996 -0.045610876
0.75859444 -0.65106954 -0.025356084
0.76283894 -0.64654975 -0.0070830463
0.76748777 -0.64051901 0.026418118
0.77330697 -0.63134389 0.058320058
0.77603885 -0.62349315 0.094973622
0.77922725 -0.61108091 0.13923006
0.78478322 -0.59416269 0.17631222
0.78798647 -0.57919358 0.20883516
0.78732818 -0.57195072 0.23018842
0.78951662 -0.5648843 0.23993591
0.78736914 -0.55921825 0.25947021
0.79102663 -0.54545519 0.27704783
0.79656428 -0.53185221 0.28743445
0.80402169 -0.51520876 0.29683169
0.8104202 -0.49178703 0.31837809
0.81733118 -0.4617401 0.34462419
0.81905089 -0.44488528 0.36226058
0.81806204 -0.42892853 0.38313812
0.81885083 -0.4099535 0.40177287
0.81165194 -0.39245124 0.4326698
0.80316322 -0.37484612 0.46305423
0.79344229 -0.35928291 0.49128925
0.78390186 -0.3373767 0.52122437
0.77484332 -0.32241448 0.54375246
0.76389455 -0.30234987 0.57013127
0.70742527 -0.67614058 -0.20587229
0.71441123 -0.6785868 -0.17069434
0.72619565 -0.67495996 -0.13064809
0.73733869 -0.67005198 -0.085802123
0.74432342 -0.66500173 -0.061280848
0.75054123 -0.6596074 -0.040074253
0.75598517 -0.6544018 -0.015643477
0.75924482 -0.6506563 0.013916867
0.76402921 -0.64337944 0.048189886
0.76497145 -0.63860989 0.08364262
0.7718424 -0.62394526 0.12227683
0.77916951 -0.60567355 0.16141385
0.78397866 -0.58832651 0.19811457
0.78325427 -0.57922408 0.22585883
0.78523863 -0.57287998 0.23496556
0.78523124 -0.56801196 0.24652447
0.79005143 -0.55331624 0.26393159
0.79638695 -0.54006556 0.27220768
0.80260486 -0.52787387 0.27780317
0.81142149 -0.50193357 0.29942923
0.81756682 -0.47322565 0.32808837
0.8188348 -0.45526035 0.34963923
0.81737647 -0.44166965 0.36989678
0.81659972 -0.42582541 0.38966346
0.81031769 -0.40545572 0.42307316
0.80072387 -0.38799233 0.45640249
0.79082389 -0.376705 0.48238046
0.78354086 -0.35768614 0.50805939
0.77447553 -0.34092956 0.53287399
0.75975354 -0.31955974 0.56626507
0.70118887 -0.68066669 -0.21219572
0.70849082 -0.68360739 -0.17527605
0.71850908 -0.68043294 -0.14406848
0.72829533 -0.67755693 -0.10248179
0.73516595 -0.67374657 -0.074810261
0.73989434 -0.67087178 -0.049874122
0.74579964 -0.66570279 -0.024953865
0.74682161 -0.66498973 0.0067926212
0.75275809 -0.65712429 0.039280123
0.75610144 -0.6512316 0.064869233
0.76168761 -0.64006844 0.10071934
0.77403377 -0.61785645 0.13829364
0.77779445 -0.60201886 0.18057988
0.77923459 -0.59154124 0.20705654
0.78079188 -0.58295798 0.22477551
0.78222715 -0.5747987 0.24026472
0.78968394 -0.5596148 0.25145685
0.79845433 -0.5435477 0.25889492
0.80303729 -0.53404827 0.26443062
0.81126611 -0.51398965 0.27867891
0.81708496 -0.48952976 0.30452059
0.81739484 -0.46785889 0.33611566
0.81759658 -0.45179274 0.35695821
0.8152648 -0.43602437 0.38108537
0.80892313 -0.41949129 0.41191071
0.79980754 -0.39699947 0.45022141
0.79278343 -0.38710141 0.47079393
0.78653447 -0.37028282 0.49422075
0.77095102 -0.35590117 0.52817505
0.75911147 -0.33267435 0.55953334
0.69426203 -0.68482893 -0.22138107
0.69766987 -0.69093611 -0.18937804
0.70676983 -0.68869701 -0.16178017
0.71475844 -0.68932231 -0.11813185
0.72414158 -0.68477977 -0.081826848
0.72648421 -0.68458356 -0.059716272
0.73216733 -0.68032167 -0.033067024
0.73701146 -0.67587916 -0.0012111306
0.74022037 -0.67191227 0.024651826
0.74404863 -0.66628996 0.049490724
0.75171818 -0.6545666 0.080388691
0.76252302 -0.63620617 0.11747491
0.77158565 -0.61444671 0.16465362
0.77736899 -0.59970936 0.18985823
0.77960687 -0.58751288 0.21689107
0.78242816 -0.57900666 0.22925412
0.79050455 -0.56500287 0.23637747
0.79910302 -0.54874115 0.24559625
0.80271295 -0.54166573 0.24949982
0.81222893 -0.52233258 0.25971686
0.81465778 -0.5038344 0.28719958
0.81478345 -0.48174561 0.32256643
0.8156882 -0.46303064 0.34677859
0.81474986 -0.44677206 0.36956378
0.80963367 -0.42609262 0.40365629
0.79853042 -0.40811686 0.44248142
0.79194168 -0.39896864 0.46222549
0.78517687 -0.38244876 0.48706286
0.77037866 -0.36790962 0.52072952
0.75384958 -0.34948672 0.55639001
0.68552901 -0.69139721 -0.22807864
0.68766064 -0.69695935 -0.20339742
0.694302 -0.69933967 -0.1699081
0.70385337 -0.69792291 -0.13226502
0.70997912 -0.69806603 -0.092916503
0.715439 -0.69500571 -0.071512885
0.71882136 -0.69381459 -0.043785504
0.72319815 -0.69050857 -0.013503779
0.72691682 -0.68662187 0.011931225
0.73149383 -0.68114136 0.031035743
0.74071189 -0.66924032 0.05884974
0.75232554 -0.65164055 0.096803282
0.7633139 -0.63002106 0.14291729
0.77248718 -0.6105002 0.17479435
0.77457725 -0.59730576 0.20798058
0.77926471 -0.58861574 0.21512329
0.78985201 -0.57241466 0.220171
0.79991432 -0.55553462 0.2269766
0.80696613 -0.5415221 0.23571059
0.81092501 -0.52972862 0.24857237
0.81321564 -0.51345681 0.27393873
0.81252581 -0.49540173 0.30721156
0.81526888 -0.47439962 0.33208681
0.81431431 -0.45662553 0.35830898
0.80785539 -0.43757025 0.3948442
0.80030888 -0.41970157 0.42820123
0.79331611 -0.40758477 0.45224353
0.78101932 -0.40022169 0.47940737
0.76386433 -0.38786534 0.51582145
0.75385355 -0.37156917 0.54188668
0.67711618 -0.698073 -0.23282561
0.67816221 -0.70594017 -0.20431469
0.6827537 -0.7090054 -0.17651835
0.69311851 -0.70716072 -0.1396798
0.69652755 -0.70913522 -0.10943769
0.70148414 -0.70750664 -0.085757539
0.70728785 -0.70525065 -0.048635573
0.70892356 -0.70483712 -0.025140021
0.71276259 -0.70140003 -0.0027358251
0.71707408 -0.69683306 0.015114475
0.72808581 -0.68466434 0.03355272
0.73589961 -0.6736186 0.068481741
0.74727781 -0.65489604 0.1126368
0.75283555 -0.64065742 0.15098579
0.76171991 -0.62069383 0.18580084
0.76932246 -0.60795729 0.19629287
0.78178678 -0.58834358 0.20654604
0.79964349 -0.5613669 0.21316074
0.80406187 -0.55173864 0.22151521
0.808711 -0.53828166 0.23714843
0.8110282 -0.52233986 0.26342805
0.80999866 -0.50680273 0.29504771
0.81272572 -0.48902953 0.31674442
0.81150987 -0.46915064 0.34835241
0.80487269 -0.45112663 0.38557064
0.79820249 -0.43662162 0.41501127
0.79059159 -0.41836106 0.44714535
0.77510677 -0.41267186 0.47844688
0.76050072 -0.40814339 0.5050323
0.7476699 -0.3995314 0.53043792
0.6673194 -0.70591667 -0.23741623
0.66838171 -0.71338471 -0.21058999
0.67260128 -0.71678404 -0.1839243
0.6768826 -0.71974973 -0.15424097
0.68508325 -0.71788873 -0.12367985
0.69202188 -0.71611709 -0.09100564
0.69734486 -0.71439989 -0.057818145
0.70001431 -0.71340162 -0.032219647
0.70116489 -0.71283027 -0.015518
0.70692134 -0.70728935 0.0019994934
0.71171323 -0.70225329 0.017452648
0.71469765 -0.69830396 0.039734792
0.72297379 -0.68633883 0.079043759
0.73011045 -0.6729152 0.11884385
0.74607246 -0.64929781 0.14760841
0.75535994 -0.63334422 0.16824524
0.7699716 -0.61514477 0.16953069
0.78796889 -0.58650839 0.18738444
0.79534575 -0.57172728 0.20137789
0.80348603 -0.55204325 0.22284174
0.80449443 -0.53980669 0.24778507
0.80775252 -0.51731691 0.28269962
0.80729163 -0.50514825 0.30513189
0.80769156 -0.48897001 0.32945814
0.80245041 -0.46772343 0.37055112
0.79479957 -0.45362194 0.40313866
0.78181686 -0.43659254 0.4451397
0.7663761 -0.4314336 0.47595453
0.74958889 -0.4275409 0.50529721
0.73634153 -0.4230322 0.52805768
0.64836893 -0.72000398 -0.24741059
0.65334633 -0.72335061 -0.22338862
0.65809879 -0.72781383 -0.1928549
0.6658155 -0.72787813 -0.16396084
0.67541791 -0.72495269 -0.13510827
0.68327183 -0.72296809 -0.1022582
0.68658558 -0.72391811 -0.067400288
0.69141293 -0.72134381 -0.040140674
0.69362106 -0.72000797 -0.021871215
0.6966543 -0.71737514 -0.00675953
0.6967143 -0.717331 0.0050419458
0.69637533 -0.7174386 0.018527119
0.70215999 -0.7104636 0.047040587
0.70855293 -0.70155197 0.076010312