# vtk DataFile Version 2.0
Grain example
ASCII
DATASET UNSTRUCTURED_GRID
POINTS 900 float
14.857825 -3.1485274 9.5426945
15.617829 -3.1106981 8.5547018
16.376953 -3.0362504 7.5530042
17.034638 -3.0184736 6.6345813
17.563658 -3.0772062 5.815088
18.091208 -3.11335 4.9613181
18.52904 -3.1338893 4.1700537
18.872094 -3.1345523 3.5241447
19.179078 -3.1413991 2.916551
19.46843 -3.1600085 2.2732575
19.738927 -3.1983522 1.6452595
19.994364 -3.2206706 1.0245185
20.226643 -3.249248 0.38783753
20.45568 -3.2813017 -0.28189418
20.629727 -3.299936 -0.98427269
20.767615 -3.3136815 -1.6640354
20.847644 -3.3315015 -2.2645714
20.916769 -3.3300599 -2.8232271
20.966753 -3.3398955 -3.365561
21.011012 -3.3422861 -3.9005721
21.057843 -3.325501 -4.3926732
21.099729 -3.3037804 -4.8613646
21.047758 -3.2461569 -5.3424478
20.920398 -3.2035002 -5.7855622
20.780098 -3.1873367 -6.2250971
20.644957 -3.1652055 -6.6474619
20.513147 -3.1538537 -7.0558962
20.383071 -3.1433279 -7.4589883
20.240375 -3.1459722 -7.8885826
20.085936 -3.1484781 -8.3194732
14.828529 -2.3067809 9.7270963
15.619885 -2.1755396 8.804467
16.423095 -2.1014364 7.8065384
17.058458 -2.1045349 6.9381786
17.635186 -2.1568492 6.1068771
18.159901 -2.1857543 5.2618528
18.606873 -2.1935465 4.5548704
18.954026 -2.2039913 3.9165398
19.277425 -2.2204493 3.3158634
19.601257 -2.2285004 2.7165688
19.903034 -2.2328723 2.0929501
20.16742 -2.2547786 1.4698878
20.428523 -2.2657352 0.83179601
20.690147 -2.3075032 0.17021662
20.946316 -2.3395228 -0.49876975
21.133029 -2.354902 -1.2215484
21.241202 -2.3735334 -1.8710819
21.315459 -2.3905902 -2.4767041
21.392402 -2.3879557 -3.0427265
21.455843 -2.360794 -3.6006738
21.5053 -2.3466783 -4.1307862
21.565932 -2.3020601 -4.6350158
21.601149 -2.2071005 -5.1312893
21.504333 -2.15188 -5.5985692
21.355796 -2.1421649 -6.0523029
21.191243 -2.1594231 -6.4994877
21.028033 -2.1753761 -6.9549839
20.862424 -2.2101377 -7.4005388
20.687709 -2.2337065 -7.8628708
20.518011 -2.2604382 -8.304786
14.836174 -1.440998 9.8417146
15.618682 -1.2866126 8.9361806
16.422742 -1.1633149 8.0096667
17.086242 -1.192996 7.2296842
17.682522 -1.2136683 6.3896727
18.202706 -1.2450248 5.6153709
18.635303 -1.2482581 4.9338827
19.024842 -1.2659508 4.3158464
19.349851 -1.2776031 3.7120607
19.679886 -1.2759073 3.1057738
20.010149 -1.2812482 2.5169606
20.339775 -1.283567 1.9087659
20.599989 -1.3071161 1.2684823
20.863113 -1.3483353 0.60343654
21.137106 -1.3702984 -0.074108584
21.417001 -1.390889 -0.7602435
21.612178 -1.3893091 -1.4257131
21.711836 -1.4073334 -2.0794405
21.793798 -1.4205603 -2.7093095
21.851466 -1.4369577 -3.3197373
21.917089 -1.3990597 -3.891145
21.975442 -1.3666003 -4.4279982
22.006273 -1.3437673 -4.9593871
21.935561 -1.2897391 -5.4733025
21.771044 -1.3119339 -5.9440711
21.598192 -1.3236937 -6.4267494
21.421678 -1.3344921 -6.9157179
21.250815 -1.3583365 -7.3761534
21.082065 -1.3816305 -7.8400327
20.910821 -1.4068496 -8.2916818
14.850929 -0.56308051 9.9340853
15.627001 -0.41244013 9.0523
16.38031 -0.32203185 8.196571
17.068938 -0.32045495 7.4381293
17.659935 -0.31537978 6.7090381
18.215299 -0.30704406 5.9854135
18.657284 -0.30321043 5.314206
19.057364 -0.31321767 4.7025313
19.422251 -0.31331003 4.1089239
19.74656 -0.33686975 3.4985529
20.07761 -0.3609102 2.8915018
20.409047 -0.39394273 2.2868375
20.724336 -0.4224792 1.6804125
20.987063 -0.48788864 1.0046527
21.25939 -0.52512044 0.31441528
21.538707 -0.5386025 -0.38964599
21.809695 -0.54563536 -1.0800973
21.964997 -0.5435732 -1.7500656
22.082176 -0.55827863 -2.3968215
22.167311 -0.55943917 -3.0486344
22.24218 -0.55880173 -3.6847297
22.293271 -0.55467059 -4.2612411
22.327078 -0.52994731 -4.8046238
22.282823 -0.50525431 -5.3505638
22.176649 -0.47751119 -5.8630219
22.0076 -0.48110485 -6.342658
21.825296 -0.48798402 -6.8569114
21.64479 -0.50763594 -7.3445281
21.472239 -0.53909761 -7.8114496
21.29907 -0.56417896 -8.2640475
14.869215 0.31176872 10.018637
15.640586 0.45010117 9.160288
16.335716 0.47721518 8.3765648
16.968337 0.45681912 7.6740277
17.608589 0.46679989 6.9428633
18.145373 0.48984862 6.2623623
18.633869 0.50513393 5.6298614
19.041212 0.5023594 5.054924
19.427152 0.47368211 4.4518924
19.7742 0.44638111 3.8386775
20.105393 0.41424189 3.2282847
20.437334 0.38556762 2.623332
20.771102 0.34955163 2.0102576
21.089644 0.34291622 1.3741227
21.369371 0.32124605 0.66730695
21.647957 0.29337651 -0.055050585
21.933299 0.28082184 -0.76483725
22.159163 0.27482231 -1.4634938
22.302482 0.29339015 -2.1291752
22.422516 0.30167968 -2.7850621
22.534577 0.30598193 -3.4157138
22.596398 0.29631078 -4.0414578
22.635065 0.28620435 -4.6376447
22.628672 0.30606217 -5.2064827
22.54011 0.35361541 -5.7623524
22.415792 0.37281385 -6.2759418
22.229663 0.36198897 -6.7926646
22.043925 0.34903232 -7.2957344
21.850665 0.33802955 -7.7839785
21.670265 0.33244413 -8.2512588
14.857003 0.98487459 10.069084
15.602092 1.1124693 9.2785465
16.230311 1.1205203 8.5869061
16.861341 1.1255524 7.8870917
17.518986 1.1406121 7.1516201
18.068534 1.1859616 6.4943727
18.547194 1.236418 5.8847206
18.983562 1.2407086 5.3207623
19.391144 1.2301793 4.7402868
19.795648 1.219169 4.162782
20.134353 1.185792 3.5605763
20.467996 1.1467918 2.9390044
20.816404 1.1269423 2.3057319
21.155749 1.1150265 1.6489514
21.467008 1.1219708 0.98081552
21.750198 1.0982491 0.25966259
22.052731 1.1056355 -0.46679824
22.331952 1.1284988 -1.1827752
22.524567 1.145283 -1.8628953
22.647242 1.1551355 -2.5286982
22.758072 1.1560079 -3.1650263
22.868976 1.1691823 -3.7973233
22.947977 1.1582832 -4.4146047
22.972566 1.1379276 -5.0284526
22.887855 1.2217338 -5.6507015
22.764976 1.2780736 -6.2088448
22.607672 1.3108711 -6.755461
22.41682 1.3179603 -7.2766579
22.227766 1.312278 -7.7712184
22.032959 1.3027874 -8.2691971
14.831043 1.638575 10.119101
15.523605 1.7144346 9.4233473
16.115554 1.7490315 8.8088335
16.754898 1.781589 8.0986763
17.419541 1.8186463 7.3605998
17.981925 1.8736336 6.7248881
18.464222 1.927348 6.1220994
18.913842 1.9377148 5.5473059
19.339667 1.9343203 4.9769861
19.751839 1.9132592 4.3813144
20.147797 1.8989902 3.7967722
20.50693 1.8950899 3.1997466
20.866026 1.8989163 2.5808542
21.2212 1.8840152 1.9161438
21.541327 1.8852094 1.2575397
21.866297 1.9229943 0.55802311
22.186327 1.9535123 -0.17792787
22.49586 1.9949407 -0.90131275
22.72577 1.996214 -1.5911991
22.863575 2.0032196 -2.265836
22.990707 2.0243603 -2.9209608
23.111179 2.0393042 -3.5642459
23.194304 2.0674708 -4.2107145
23.25212 2.1009636 -4.8645775
23.207915 2.1762138 -5.5409987
23.089601 2.219542 -6.1536549
22.962122 2.272692 -6.7191346
22.788538 2.2904903 -7.2530902
22.593504 2.288039 -7.7685424
22.402596 2.2698312 -8.2657697
14.789638 2.2751005 10.168145
15.380421 2.3006626 9.5976314
16.009451 2.348765 8.9669508
16.65886 2.4045162 8.2742317
17.301515 2.4473849 7.5671652
17.862783 2.4954223 6.9345136
18.388073 2.5390147 6.3152552
18.849706 2.5696118 5.7355498
19.308093 2.5948204 5.1626352
19.724954 2.6117464 4.5722902
20.139272 2.6179633 3.9952279
20.520881 2.6222969 3.4014688
20.890833 2.6374794 2.7930422
21.273789 2.635543 2.1566928
21.621571 2.6639449 1.5180454
21.974126 2.7317901 0.82022383
22.317784 2.8050599 0.11495941
22.636117 2.8481372 -0.6186719
22.8878 2.8629664 -1.3117833
23.092076 2.8785535 -2.011421
23.215075 2.9326766 -2.6846779
23.326418 3.0062619 -3.3725554
23.414223 3.0453361 -4.0334954
23.479377 3.0825103 -4.7106645
23.478803 3.1307153 -5.4055784
23.412132 3.1879042 -6.0499536
23.278777 3.2112109 -6.6729407
23.146003 3.2647394 -7.2410288
22.940923 3.2693272 -7.7743052
22.721527 3.2510523 -8.272106
14.645092 2.7735173 10.311245
15.270098 2.8331765 9.7168127
15.908163 2.8996206 9.0932142
16.562541 2.9606512 8.4220576
17.177851 3.0202614 7.7448239
17.757563 3.0754059 7.0949229
18.306114 3.1243661 6.4835112
18.794875 3.1916845 5.8904388
19.258097 3.2467823 5.3195095
19.698772 3.2890813 4.7469382
20.118675 3.3114251 4.1772077
20.539099 3.3442725 3.595443
20.907308 3.369251 2.9932278
21.300037 3.3840118 2.346913
21.686073 3.4373104 1.7020006
22.059952 3.5294429 1.0426099
22.430055 3.6212325 0.38528472
22.778251 3.7096383 -0.3339376
23.05518 3.7887335 -1.0650486
23.271985 3.8522822 -1.7815395
23.420271 3.913017 -2.482429
23.535363 3.9877357 -3.1774326
23.626903 4.0223171 -3.8508694
23.702098 4.0475039 -4.5613223
23.728018 4.0888757 -5.2805418
23.659254 4.1820487 -5.9759878
23.552123 4.2147242 -6.6028353
23.424473 4.2502811 -7.2212589
23.243241 4.2939269 -7.7829787
22.972056 4.2765484 -8.2883413
14.505393 3.2012491 10.410317
15.154359 3.2873161 9.8132492
15.81676 3.3569341 9.1839826
16.489713 3.4349163 8.5153403
17.08046 3.5455299 7.8832517
17.669948 3.6414598 7.2347455
18.214323 3.7132225 6.6289782
18.737707 3.7857917 6.0311115
19.210115 3.8507741 5.4524167
19.672114 3.9006887 4.8870304
20.091606 3.9603336 4.3268453
20.514688 4.015846 3.751848
20.928101 4.0715163 3.1617011
21.337321 4.1308019 2.5206733
21.747067 4.2014299 1.8760379
22.129464 4.3062245 1.2186704
22.514509 4.4432122 0.54847105
22.891075 4.6181936 -0.14450203
23.200335 4.7645953 -0.85004301
23.429381 4.84273 -1.5766978
23.619886 4.892704 -2.2761986
23.737554 4.9549316 -2.9739312
23.828118 4.9930873 -3.6702808
23.899664 5.0276532 -4.4271057
23.942456 5.0741276 -5.1783935
23.873997 5.1736002 -5.886564
23.775106 5.2401207 -6.5504201
23.644566 5.2758838 -7.1702667
23.491489 5.3139651 -7.7919492
23.128951 5.3509249 -8.3448526
14.378314 3.6449431 10.49044
15.015579 3.7480284 9.908185
15.694626 3.8192603 9.269171
16.394424 3.8988363 8.6050702
16.999602 4.0260037 7.9916953
17.596607 4.1375651 7.3399628
18.135525 4.2202725 6.7467216
18.670376 4.3067892 6.1565494
19.160624 4.3831481 5.5746424
19.632602 4.4551976 5.0058782
20.077481 4.5358766 4.4499029
20.507403 4.6235953 3.8759299
20.948171 4.7261756 3.2899831
21.368161 4.8115906 2.661425
21.813314 4.9333341 2.0081435
22.193304 5.127152 1.3326784
22.571261 5.3228746 0.65874772
22.956395 5.5062046 -0.039076906
23.299 5.6766073 -0.69703631
23.569564 5.7971396 -1.3832051
23.775368 5.8811788 -2.0725917
[...]
POINT_DATA 900
VECTORS normals float
0.7737024 -0.13658536 0.61865099
0.78058224 -0.16639628 0.60249784
0.79092282 -0.19554589 0.57983007
0.8025646 -0.226402 0.55193495
0.81267238 -0.26586649 0.51853506
0.82161725 -0.28706579 0.4924818
0.83163093 -0.30342439 0.46510604
0.83571563 -0.32129533 0.44536356
0.84108906 -0.33027098 0.42835766
0.84554112 -0.34325963 0.40894137
0.8532973 -0.35532176 0.38161521
0.85822504 -0.36755482 0.3582642
0.8643416 -0.3900413 0.31746082
0.87009377 -0.41477577 0.26626659
0.87548103 -0.43694844 0.20641955
0.87488157 -0.46010512 0.15127963
0.87170458 -0.4768364 0.11295208
0.86988162 -0.48740464 0.075780539
0.86511474 -0.5001038 0.038375399
0.8561327 -0.51672972 -0.0052151436
0.85606904 -0.51569801 -0.03466065
0.84658422 -0.52521826 -0.086260853
0.84062315 -0.52258671 -0.14232305
0.83039804 -0.52619702 -0.18318239
0.82328398 -0.52651035 -0.21210928
0.81484111 -0.52347527 -0.24901327
0.8132092 -0.51390965 -0.27310742
0.80457298 -0.50532435 -0.31194488
0.79781893 -0.50525218 -0.32894558
0.79023524 -0.50232497 -0.35099557
0.76313272 -0.11528044 0.63587646
0.76811778 -0.13631508 0.6256303
0.78135771 -0.16459551 0.60198708
0.79167587 -0.19108704 0.58028877
0.80164716 -0.22043343 0.55567161
0.81358105 -0.24712683 0.52632139
0.82807666 -0.27030525 0.49114572
0.83038624 -0.28424853 0.47923007
0.83737222 -0.30101638 0.45628599
0.84363131 -0.31101483 0.4376711
0.85163769 -0.31938997 0.41557586
0.86010028 -0.32431116 0.39376361
0.86783683 -0.33791107 0.36424626
0.87908368 -0.35117128 0.32232067
0.89045267 -0.3672746 0.26870691
0.89828585 -0.38904034 0.20427958
0.89884871 -0.41152624 0.15072209
0.89607706 -0.4288637 0.11455053
0.89530907 -0.43829927 0.079469614
0.89451996 -0.44365281 0.054829089
0.89206888 -0.45189906 -0.00059429077
0.88926523 -0.45532937 -0.043388026
0.88728413 -0.45180207 -0.092745658
0.87853474 -0.45453703 -0.14687682
0.8616972 -0.46339078 -0.20675331
0.8473375 -0.46998833 -0.24724506
0.83868133 -0.46712818 -0.28000874
0.83277628 -0.45340344 -0.31766175
0.82575172 -0.44620944 -0.34500903
0.81628453 -0.43724051 -0.37749211
0.75532711 -0.10012846 0.64765365
0.75834738 -0.12203983 0.64032455
0.77009217 -0.14655477 0.62087015
0.77761801 -0.1642395 0.6069066
0.7921431 -0.19109184 0.57964922
0.80494466 -0.21472344 0.55313465
0.82001923 -0.23318467 0.52267903
0.82799101 -0.24871585 0.50256474
0.83349167 -0.26541904 0.48460745
0.84160489 -0.2749736 0.46485559
0.84908196 -0.28431519 0.44522432
0.85944875 -0.29609211 0.4167461
0.86875218 -0.30142442 0.39295415
0.8789102 -0.31553823 0.35770447
0.89037596 -0.32685186 0.31685724
0.90318603 -0.33717559 0.26564566
0.9121905 -0.35026663 0.21265413
0.91859519 -0.35973357 0.16362955
0.91923265 -0.37376985 0.12372326
0.91763442 -0.38976284 0.077665963
0.91844945 -0.39324321 0.042548656
0.91622119 -0.40061253 -0.0069518164
0.91050664 -0.40881894 -0.062005872
0.9039027 -0.41146622 -0.11685657
0.88936304 -0.42081389 -0.17874296
0.87164925 -0.42837165 -0.23817076
0.85994966 -0.4242734 -0.28368762
0.8487931 -0.42157703 -0.31909729
0.83757848 -0.4118502 -0.35894526
0.83001075 -0.3947867 -0.39398683
0.74822709 -0.090397046 0.65725535
0.74808348 -0.10670163 0.65497013
0.75912171 -0.12863156 0.63811296
0.76810791 -0.14974724 0.62256405
0.77791582 -0.16614379 0.60600595
0.79062396 -0.18482806 0.58373996
0.80338058 -0.19768533 0.561694
0.81626732 -0.20949757 0.53834787
0.82703165 -0.22311871 0.51598128
0.83696049 -0.23388019 0.49476985
0.84632293 -0.24992113 0.47040082
0.85690151 -0.2607447 0.44467067
0.86847183 -0.26962792 0.41600176
0.8787009 -0.27872494 0.38755275
0.89221488 -0.28665332 0.34897346
0.90526999 -0.29664423 0.30411912
0.91550879 -0.30547031 0.26178529
0.92399417 -0.32310238 0.20454739
0.93051803 -0.33366031 0.15101983
0.93207704 -0.34482513 0.11103162
0.93276744 -0.35271793 0.074397307
0.9309139 -0.36483934 0.017075052
0.92910672 -0.36827136 -0.033717992
0.92210582 -0.37539707 -0.093797143
0.91349681 -0.37434122 -0.15934938
0.89707124 -0.37919563 -0.22687853
0.88342412 -0.37623146 -0.27930579
0.86846656 -0.3692286 -0.33081125
0.85829696 -0.364154 -0.3615497
0.84299318 -0.35064916 -0.40793095
0.73215167 -0.06301547 0.67822045
0.73903069 -0.088503179 0.66783293
0.74503343 -0.1065422 0.65846332
0.75628722 -0.12129424 0.64289762
0.76976859 -0.1420966 0.6223061
0.78236579 -0.15525198 0.60315885
0.79439531 -0.16512199 0.58452615
0.80818376 -0.17613654 0.56197413
0.82330263 -0.1862196 0.53618565
0.83321544 -0.2010337 0.5151092
0.84222652 -0.21321609 0.49517006
0.85033869 -0.22331406 0.47650282
0.86283248 -0.23638281 0.44681458
0.87709015 -0.25080722 0.4096445
0.88907203 -0.26045512 0.37644928
0.90237347 -0.2694402 0.33633927
0.91619634 -0.28072707 0.28596603
0.92807297 -0.28955 0.2341823
0.93392896 -0.3048878 0.1866015
0.93749644 -0.31636027 0.14497105
0.93986903 -0.32413658 0.10761828
0.94042268 -0.33489186 0.058759101
0.93791817 -0.34661305 -0.012996007
0.93568512 -0.3453607 -0.072245102
0.92629815 -0.3419744 -0.15819373
0.91687734 -0.34186495 -0.20606868
0.90020358 -0.33878356 -0.27360412
0.88465406 -0.32806757 -0.33129876
0.86952172 -0.30916124 -0.38516399
0.85150539 -0.29548035 -0.43316271
0.72380898 -0.048015786 0.68832772
0.72674099 -0.071600976 0.6831697
0.73235387 -0.085002191 0.67559784
0.74806179 -0.10340973 0.65552268
0.75955043 -0.11638398 0.63995149
0.77482117 -0.12778613 0.61913073
0.78750868 -0.13788943 0.6006801
0.80015724 -0.14598934 0.5817521
0.81191199 -0.15372709 0.56317573
0.82562771 -0.16292837 0.54017888
0.83551247 -0.17730586 0.5200784
0.84590965 -0.18815428 0.4990339
0.85811158 -0.20639868 0.47015327
0.87301206 -0.21682671 0.43684794
0.88595589 -0.23069646 0.40231991
0.89882012 -0.24545157 0.36314725
0.91333617 -0.25558442 0.31700732
0.92611204 -0.26888441 0.2646085
0.9354884 -0.27598985 0.22066052
0.94144803 -0.28802764 0.1752589
0.94604098 -0.29218648 0.1401197
0.94878001 -0.30320006 0.088804413
0.95248002 -0.30434822 0.012408426
0.94925262 -0.3105334 -0.049884625
0.94241518 -0.30266553 -0.14229266
0.93173593 -0.3001833 -0.2043481
0.91419017 -0.29892133 -0.27368299
0.89690767 -0.28768134 -0.33585128
0.86790657 -0.27510114 -0.41359104
0.85232315 -0.26010381 -0.45375242
0.71337596 -0.027650734 0.7002358
0.71631183 -0.045089735 0.69632197
0.72346814 -0.061048443 0.68765321
0.73763323 -0.077102476 0.67078493
0.75281441 -0.088743004 0.65222323
0.76644183 -0.10310382 0.63398464
0.77986029 -0.10770762 0.61661738
0.79349488 -0.11611036 0.5973979
0.80691962 -0.12742772 0.57675202
0.81881113 -0.13354844 0.55831277
0.83182479 -0.14741762 0.53510332
0.84240836 -0.15998292 0.51454214
0.85254719 -0.17141237 0.49374193
0.866696 -0.18403982 0.46364575
0.87747913 -0.20120658 0.43536915
0.89231734 -0.21792303 0.39532178
0.91143064 -0.23541421 0.33745271
0.92314874 -0.24232892 0.29845117
0.93542453 -0.25026831 0.24969326
0.94330518 -0.25669376 0.21043683
0.95104308 -0.26187955 0.16412239
0.95730259 -0.26487198 0.11582134
0.96088535 -0.27223951 0.050842792
0.96260403 -0.26992759 -0.023077681
0.95700731 -0.26575001 -0.11624944
0.94736447 -0.25566534 -0.19270649
0.9259089 -0.2607312 -0.27333486
0.90458136 -0.25534633 -0.34136609
0.87911336 -0.24306292 -0.40997575
0.85000074 -0.21990455 -0.47868646
0.70266356 -0.0012920597 0.71152109
0.70651099 -0.011424519 0.70760985
0.71558034 -0.02951625 0.69790656
0.72841879 -0.04502709 0.68365096
0.74251652 -0.061293935 0.66701744
0.75836064 -0.075569976 0.64743982
0.77156984 -0.087321488 0.63012296
0.78759663 -0.095203512 0.60879212
0.80067675 -0.10287063 0.59019859
0.81282057 -0.1131683 0.57141549
0.82563923 -0.12379181 0.55045023
0.83796798 -0.13694904 0.52825622
0.84582026 -0.1470896 0.51278918
0.85964599 -0.15935927 0.48540024
0.87177509 -0.17242263 0.45856147
0.88656582 -0.18676613 0.42322506
0.9058849 -0.20436018 0.37095751
0.92240969 -0.21946397 0.31779856
0.93359418 -0.22233503 0.28101431
0.94544512 -0.23127676 0.22944408
0.95432506 -0.23800874 0.18059768
0.96207771 -0.23911342 0.13126786
0.96797396 -0.23777376 0.080560848
0.97131081 -0.23769711 -0.0074431119
0.96807235 -0.23901519 -0.07554913
0.95652679 -0.23334622 -0.17494585
0.93653 -0.22845228 -0.26593442
0.91238941 -0.22265179 -0.34347014
0.87442205 -0.20611622 -0.43920632
0.84864159 -0.19065443 -0.49341498
0.69223502 0.024943921 0.72124093
0.69726885 0.0099634229 0.71674046
0.70722421 -0.0074819725 0.70694974
0.72049792 -0.022591633 0.693089
0.73415135 -0.039392296 0.6778422
0.74998435 -0.051744728 0.65942851
0.76430275 -0.067570006 0.64130773
0.77808499 -0.078398437 0.62324749
0.79392258 -0.089678841 0.60136897
0.8030057 -0.099629451 0.58758474
0.81635108 -0.11027301 0.56693101
0.83137349 -0.11767302 0.5431125
0.84112868 -0.12934813 0.52513961
0.85153211 -0.14199723 0.50470769
0.8652773 -0.14782632 0.47900165
0.88059876 -0.160294 0.44592787
0.89558755 -0.17614739 0.40852789
0.91633325 -0.18499544 0.35511979
0.93198309 -0.2017858 0.30114782
0.94429156 -0.20759059 0.25538126
0.95645564 -0.21301659 0.19954082
0.96522268 -0.21749581 0.14505433
0.97131863 -0.21556432 0.10036008
0.97694012 -0.21331338 0.0092417383
0.97412849 -0.21758077 -0.061092552
0.96357102 -0.21519368 -0.15881614
0.94463623 -0.21519482 -0.24769654
0.91711477 -0.19257524 -0.34902046
0.88407733 -0.16999502 -0.43532627
0.83531483 -0.16272703 -0.52513718
0.68112901 0.044243191 0.73082543
0.69106025 0.026589151 0.72230793
0.69937896 0.018414717 0.7145138
0.71284215 0.00060523056 0.70132425
0.72335717 -0.011594582 0.69037669
0.73954177 -0.029009199 0.67248527
0.75445711 -0.04607774 0.65472995
0.76864782 -0.062279279 0.6366332
0.78429039 -0.075495091 0.6157833
0.79511651 -0.086627099 0.60023785
0.80958641 -0.09366031 0.57948045
0.82235691 -0.10168204 0.55981236
0.8305735 -0.1138194 0.54515393
0.84462082 -0.12539779 0.52047196
0.8611622 -0.13407043 0.4903313
0.87389376 -0.14610635 0.46364062
0.88989301 -0.15843399 0.42777226
0.91100821 -0.16330302 0.37867685
0.92773471 -0.17671755 0.32875403
0.94319077 -0.19009496 0.27249785
0.95559168 -0.19282024 0.22285623
0.96740534 -0.19457819 0.16206863
0.97265747 -0.20402828 0.11095006
0.97777031 -0.20816185 0.025176724
0.97710449 -0.20604841 -0.053017685
0.96716041 -0.20754265 -0.1467201
0.94561609 -0.20055217 -0.25610357
0.92080432 -0.19650913 -0.33690291
0.88183172 -0.17560958 -0.43764609
0.8336802 -0.16499912 -0.52702241
0.66808214 0.072657157 0.7405317
0.67982034 0.047994809 0.73180654
0.69084834 0.030585028 0.7223525
0.70260861 0.019024121 0.71132217
0.71535564 0.0066663059 0.69872875
0.72877203 -0.010412087 0.68467724
0.74498212 -0.03174913 0.66632848
0.75973803 -0.046768177 0.64854519
0.77387235 -0.0622242 0.63027751
0.78978281 -0.072190501 0.60912367
0.80072774 -0.079020239 0.59379365
0.81472727 -0.089963255 0.57282291
0.82276371 -0.10157807 0.55923319
0.83770886 -0.10975629 0.53497423
0.85393743 -0.116954 0.50706275
0.86907244 -0.12513045 0.47859739
0.88565887 -0.13346663 0.44474153
0.90594774 -0.14227067 0.39877028
0.9226008 -0.15234424 0.35439949
0.94057487 -0.16598113 0.29625863
0.9551085 -0.17099651 0.2419255
0.96726 -0.17512292 0.18368466
0.97323718 -0.18387098 0.13784358
0.97924967 -0.19636064 0.050125713
0.97890139 -0.20032683 -0.040264455
0.97059875 -0.19054561 -0.14707293
0.94655101 -0.1814403 -0.26668446
0.91795101 -0.16753672 -0.35957948
0.8892931 -0.149783 -0.43211437
0.8323484 -0.12980705 -0.53883788
0.6539528 0.077751317 0.75252938
0.66953758 0.065378739 0.7398953
0.68095042 0.050527567 0.73058435
0.69587626 0.035133076 0.71730182
0.70670531 0.022045958 0.70716447
0.71882573 0.0050832084 0.69517173
0.73502594 -0.012833346 0.67791753
0.75046662 -0.029532618 0.66024819
0.7671183 -0.04682364 0.63979455
0.78047044 -0.058212401 0.62247668
0.79339086 -0.069941903 0.60468097
0.80580643 -0.079039268 0.58688056
0.81806843 -0.086989377 0.56850409
0.83158391 -0.099685173 0.54637997
0.84738836 -0.099530525 0.52156174
0.86480411 -0.10131961 0.49178063
0.88074788 -0.10970422 0.46070397
0.90051503 -0.12207293 0.41733785
0.91487245 -0.12750886 0.38307948
0.93094584 -0.14109159 0.33679817
0.94725569 -0.14918431 0.28363832
0.96056087 -0.15981398 0.22755726
0.97013343 -0.17310797 0.16992577
0.97818636 -0.18355158 0.097263891
0.98209 -0.18780862 -0.015071655
0.97250293 -0.16672224 -0.1626092
0.9455678 -0.14929856 -0.28915649
0.91245531 -0.11454489 -0.39281648
0.87083976 -0.092452674 -0.48279458
0.82186633 -0.081450582 -0.56382757
0.64619137 0.095764311 0.75714325
0.65983665 0.086997252 0.74635587
0.67224554 0.073525839 0.73666809
0.68465086 0.054311891 0.72684483
0.69635551 0.034923784 0.7168468
0.70590582 0.024572027 0.70787936
0.72353149 0.0057055644 0.69026779
0.74079749 -0.0090335353 0.67166769
0.75709072 -0.026250365 0.65278217
0.77239565 -0.034938653 0.63417998
0.78610868 -0.04853242 0.61617996
0.80013794 -0.061813478 0.59662247
0.8128927 -0.068598882 0.57835944
0.82900899 -0.076475758 0.55398155
0.84615173 -0.08278533 0.52647302
0.86425988 -0.086965362 0.49547137
0.87549001 -0.08772106 0.4752076
0.89531867 -0.097607673 0.43460007
0.90910424 -0.10493159 0.40313627
0.92622572 -0.12234667 0.35656305
0.9461254 -0.13108093 0.29608193
0.96153659 -0.14668013 0.23223334
0.96944206 -0.1588482 0.18694746
0.97769672 -0.17442515 0.11698286
0.98423833 -0.17672012 0.0067014154
0.97680143 -0.16437647 -0.13725646
0.94623964 -0.13132737 -0.29560728
0.90526071 -0.096677161 -0.41371074
0.861866 -0.071527457 -0.50206655
0.80889363 -0.051920444 -0.58565806
0.62619158 0.12626405 0.76937734
0.64365299 0.10788912 0.75767458
0.66098282 0.09500242 0.74436298
0.67016196 0.081898559 0.73768257
0.68410149 0.054278704 0.72736441
0.69487771 0.04286756 0.71784911
0.71344656 0.026279308 0.70021668
0.72979279 0.011670556 0.68356879
0.74656029 -0.0053742116 0.66529606
0.76339208 -0.017626259 0.64569486
0.77652724 -0.025185894 0.62958011
0.79293969 -0.040539438 0.60795
0.80243718 -0.045653176 0.5949877
0.82118695 -0.052507103 0.5682385
0.8415237 -0.062054881 0.53664426
0.85758967 -0.064457306 0.51027954
0.87190842 -0.07048716 0.48456915
0.89155054 -0.08290818 0.44526832
0.90785808 -0.088564389 0.40981709
0.9256239 -0.10823824 0.36263603
0.94349742 -0.11934096 0.30914454
0.95731288 -0.14422952 0.25049928
0.96877658 -0.1588603 0.19035585
0.98009448 -0.16235023 0.11426818
0.98689172 -0.16106806 -0.010090755
0.97492555 -0.15098981 -0.16346939
0.9399066 -0.13133882 -0.31515979
0.91390107 -0.096486208 -0.39430349
0.87149796 -0.076874048 -0.48433634
0.81932403 -0.050541597 -0.57109866
0.60740004 0.15274802 0.77957247
0.62773365 0.1362679 0.76640819
0.64496896 0.11865116 0.75494168
0.65741713 0.10257665 0.74651239
0.66822355 0.08670483 0.73889077
0.68563583 0.067460783 0.72481208
0.70288227 0.052919036 0.70933496
0.71886023 0.039517967 0.69403047
0.73414325 0.026603151 0.67847326
0.75120904 0.011177272 0.65996973
0.76505356 -0.0025553287 0.64396158
0.78334807 -0.0086472376 0.62152315
0.79763979 -0.021725878 0.60274269
0.81534933 -0.0334249 0.57800367
0.83483524 -0.039163582 0.54910503
0.85363276 -0.045001156 0.51892775
0.87049159 -0.055442926 0.48905058
0.88724124 -0.070283959 0.45592011
0.90115319 -0.086086214 0.42486715
0.92044827 -0.10564288 0.37631712
0.9363664 -0.11876279 0.33032311
0.95518099 -0.13672047 0.26255815
0.96912464 -0.15069763 0.19516059
0.98244234 -0.14866319 0.11272226
0.98858126 -0.14999362 -0.014457301
0.97910214 -0.13315521 -0.15371628
0.94433801 -0.11566076 -0.30797454
0.9032195 -0.11112576 -0.41454264
0.86322281 -0.074723472 -0.49926223
0.81395127 -0.053236755 -0.57848871
0.59256688 0.17303066 0.78671779
0.61033284 0.15981592 0.77585611
0.6312549 0.15048326 0.76083641
0.64086007 0.13613187 0.75549089
0.65695687 0.11023402 0.74582581
0.6708157 0.089126786 0.73624908
0.68941263 0.075614355 0.72041148
0.70380342 0.072322556 0.70670375
0.72131744 0.061740738 0.68984725
0.73536626 0.04989252 0.67583074
0.75266335 0.030703307 0.65768928
0.7717879 0.014721881 0.6357096
0.78949406 0.0055702095 0.61373292
0.80614016 -0.0051587985 0.59170215
0.83017962 -0.023162164 0.55701464
0.85035059 -0.039741949 0.52471369
0.86925509 -0.057408011 0.49101925
0.88346759 -0.074978673 0.46245347
0.89642779 -0.092340131 0.43346339
0.91135776 -0.10444236 0.39814423
0.93089974 -0.11607429 0.34634149
0.95135036 -0.12940521 0.279619
0.96887089 -0.14026252 0.20399907
0.98247401 -0.15217159 0.1076505
0.9895228 -0.14334824 -0.017202012
0.98051961 -0.1201645 -0.15537627
0.94433856 -0.10748605 -0.31092031
0.90060293 -0.085177455 -0.42621493
0.85795184 -0.060658146 -0.51013648
0.80697841 -0.044986203 -0.58886508
0.58281639 0.19906273 0.78784459
0.59759128 0.18880498 0.77925435
0.61051128 0.17764951 0.77182682
0.62749058 0.16370309 0.76122065
0.64169615 0.14231866 0.75363881
0.65537103 0.12393814 0.74506923
0.67732763 0.10187247 0.72859404
0.69469217 0.098920288 0.71247285
0.70897652 0.090428121 0.6994105
0.72532544 0.076726553 0.68411698
0.73962122 0.060078682 0.67033649
0.75780671 0.039164688 0.65130263
0.77330052 0.026372495 0.63349096
0.79658465 0.0066607486 0.6044903
0.82159138 -0.0092360959 0.57000201
0.84263904 -0.035841379 0.53728469
0.86072362 -0.0592615 0.50561143
0.87698684 -0.077746777 0.47418301
0.89014701 -0.096872042 0.44525734
0.90703175 -0.11440134 0.40522308
0.92964506 -0.1233337 0.34720147
0.94703988 -0.133105 0.29223026
0.96495321 -0.14150248 0.22100304
0.98202679 -0.14209869 0.124223
0.99146475 -0.13031403 0.0039867893
0.98149597 -0.11627279 -0.15213907
0.94128986 -0.10455646 -0.32100055
0.89311551 -0.077238728 -0.44314656
0.85224311 -0.06638454 -0.51891692
0.80225039 -0.042886057 -0.59544529
0.56101293 0.23072819 0.79500251
0.58034602 0.21934779 0.78427357
0.59485015 0.20944111 0.77607198
0.60895697 0.19413309 0.76907981
0.62494724 0.17231583 0.76141198
0.64142836 0.15546959 0.75126485
0.65976891 0.1444403 0.73745642
0.68016172 0.12532849 0.72226921
0.69402728 0.11383828 0.71089168
0.71234033 0.098991582 0.6948179
0.72495749 0.078714461 0.68428114
0.7397142 0.064438313 0.66982879
0.75680294 0.047885022 0.65188675
0.7819272 0.020699534 0.62302598
0.80830191 -0.0059605426 0.58873805
0.83242934 -0.037288538 0.55287517
0.85128682 -0.065255956 0.52062694
0.86963896 -0.083873393 0.48651138
0.88529917 -0.10154785 0.45379888
0.90537196 -0.11230738 0.40949806
0.92698751 -0.12301838 0.35434536
0.94727027 -0.1320544 0.29196004
0.9648269 -0.13820072 0.22362828
0.98065642 -0.14088506 0.13588373
0.99141972 -0.13008295 0.012859469
0.9815202 -0.10287875 -0.16135074
0.94029499 -0.09626157 -0.32646446
0.89264057 -0.074185229 -0.44462272
0.84505823 -0.055970932 -0.53173663
0.80414192 -0.045287782 -0.59270971
0.5386021 0.26947264 0.79830588
0.55899122 0.25714379 0.78829302
0.57515073 0.24341808 0.7809925
0.59029562 0.22902625 0.77401425
0.6015358 0.21388065 0.76968159
0.61847865 0.19310216 0.76170579
0.63998698 0.17075334 0.74917285
0.65909967 0.15111623 0.73671671
0.67625541 0.13245173 0.7246621
0.69484111 0.11591375 0.70976041
0.71041388 0.09819149 0.69690068
0.72288891 0.084502423 0.68577764
0.74274682 0.06129124 0.66676123
0.76667796 0.028411967 0.64140289
0.7902868 -0.0064195687 0.61270348
0.8199951 -0.043064224 0.5707482
0.84075658 -0.071021204 0.5367349
0.86204351 -0.093400208 0.49815399
0.88256923 -0.10513946 0.45827638
0.90030512 -0.11090493 0.42089284
0.92607824 -0.11800338 0.3584052
0.9443691 -0.12311791 0.30497373
0.96236005 -0.13256381 0.23725508
0.9800329 -0.1317131 0.14895362
0.99153006 -0.12790707 0.022537121
0.98361967 -0.11677752 -0.13731478
0.94810483 -0.084123273 -0.30662763
0.8890533 -0.065378662 -0.45311131
0.84392387 -0.05320904 -0.53381767
0.78820649 -0.047862489 -0.61354682
0.50704561 0.31236433 0.80332638
0.53393541 0.29748813 0.79146307
0.54502714 0.28732811 0.78764711
0.56333378 0.26962168 0.78099885
0.57569756 0.25249823 0.77769979
0.59771244 0.22235638 0.77025806
0.61602074 0.19568934 0.76303613
0.63457695 0.17419052 0.75297394
0.65844468 0.14650432 0.73823241
0.67746077 0.13354941 0.72333358
0.69865475 0.11076204 0.70683329
0.70929556 0.095361978 0.69843103
0.72645037 0.069899638 0.68365481
0.74771028 0.030874243 0.66330696
0.77708093 -0.0066252482 0.62936582