# vtk DataFile Version 2.0
Grain example
ASCII
DATASET UNSTRUCTURED_GRID
POINTS 900 float
-2.654919 1.596907 20.292302
-2.7385694 0.48025887 21.251007
-2.7133644 -0.41796726 21.932373
-2.7068092 -1.1420569 22.447788
-2.7588002 -1.7634099 22.877727
-2.8106911 -2.351691 23.255512
-2.8316699 -2.7875168 23.419148
-2.8463696 -3.2362936 23.573498
-2.8622934 -3.6889603 23.700513
-2.9011367 -4.1581145 23.753796
-2.9055928 -4.6616738 23.732924
-2.8930481 -5.1662672 23.705674
-2.8864406 -5.6853458 23.655298
-2.8650086 -6.2878689 23.519249
-2.8460655 -6.9452236 23.336307
-2.8452973 -7.6174938 23.074164
-2.8673892 -8.2929344 22.754166
-2.8861949 -8.9898082 22.384907
-2.8884022 -9.628353 21.989576
-2.8731518 -10.245326 21.590402
-2.8803006 -10.875722 21.131425
-2.8963552 -11.496428 20.670307
-2.9115106 -12.120067 20.193574
-2.8996538 -12.723138 19.666078
-2.8777388 -13.307969 19.136086
-2.8587086 -13.880277 18.618323
-2.8586445 -14.459645 18.086985
-2.8516879 -15.030091 17.555671
-2.8489358 -15.615987 16.99902
-2.8350419 -16.190296 16.458869
-3.0515374 1.842223 20.094166
-3.1596546 0.71725358 21.052783
-3.1772202 -0.18349839 21.728507
-3.154044 -0.94360892 22.27564
-3.1682812 -1.6320687 22.764282
-3.2256284 -2.1998159 23.123132
-3.251912 -2.650413 23.319381
-3.2962501 -3.1012247 23.480692
-3.3458152 -3.5796246 23.6021
-3.3882236 -4.0724127 23.684707
-3.3860312 -4.6024032 23.694671
-3.3696425 -5.1280726 23.659945
-3.3576312 -5.6838753 23.59809
-3.3571617 -6.2904198 23.500742
-3.3463899 -6.9471829 23.313537
-3.3539988 -7.6288622 23.017743
-3.3876949 -8.3370863 22.678912
-3.4143513 -9.0189002 22.321112
-3.4233643 -9.667475 21.946701
-3.4218876 -10.305307 21.532917
-3.4439342 -10.939363 21.070088
-3.4576668 -11.564366 20.605601
-3.4714673 -12.195395 20.133306
-3.4538823 -12.813715 19.618072
-3.4413486 -13.406202 19.077074
-3.4400709 -13.977178 18.552492
-3.4391193 -14.557211 18.027066
-3.4221794 -15.139513 17.475109
-3.4039812 -15.726209 16.921046
-3.3923958 -16.299986 16.376666
-3.4659075 2.0888715 19.889213
-3.6169426 0.95158886 20.848099
-3.6400275 0.056329172 21.517048
-3.6222894 -0.72458625 22.089065
-3.6173153 -1.4676226 22.610859
-3.6402706 -2.0208597 22.951685
-3.7013361 -2.5160844 23.169389
-3.7764372 -3.005875 23.362245
-3.8307743 -3.4922273 23.516557
-3.8715713 -3.9893772 23.596637
-3.8662533 -4.5521605 23.612524
-3.8439385 -5.1129859 23.594178
-3.8267738 -5.6844694 23.538146
-3.8338116 -6.3015014 23.434231
-3.8452021 -6.9546965 23.274063
-3.8771835 -7.6684884 22.946554
-3.8958527 -8.3612918 22.605955
-3.9029109 -9.0386248 22.253553
-3.9431753 -9.7172216 21.870089
-3.9775522 -10.362194 21.448817
-4.0058747 -11.005103 21.006437
-4.0198 -11.62561 20.542792
-4.0417811 -12.252144 20.073844
-4.05279 -12.86713 19.579187
-4.0357735 -13.472734 19.031031
-4.0127635 -14.066487 18.49851
-3.9944149 -14.646389 17.966395
-3.9799452 -15.232686 17.409785
-3.9613788 -15.823112 16.847705
-3.9448077 -16.401683 16.303765
-3.8924396 2.3095521 19.674088
-4.0534616 1.1871172 20.625761
-4.0910559 0.27621413 21.31703
-4.0969793 -0.54451193 21.926104
-4.0782249 -1.3230862 22.476018
-4.1280841 -1.8698609 22.765149
-4.1811036 -2.3838684 23.005992
-4.2344532 -2.9039391 23.218133
-4.308447 -3.4056675 23.393901
-4.3449219 -3.921961 23.480328
-4.3441668 -4.4738896 23.503161
-4.3208567 -5.0677067 23.493264
-4.3073823 -5.6647237 23.452307
-4.3118842 -6.3112194 23.355473
-4.3504919 -7.0052392 23.151678
-4.3828588 -7.6949999 22.870309
-4.38941 -8.3720894 22.531467
-4.4147436 -9.0643125 22.163597
-4.4613477 -9.7638217 21.763675
-4.5069814 -10.42038 21.347243
-4.5519529 -11.061842 20.917939
-4.6081924 -11.690084 20.475667
-4.6273781 -12.303565 20.012215
-4.6338139 -12.906828 19.534879
-4.6128739 -13.518826 19.002353
-4.5891536 -14.112512 18.468992
-4.5621976 -14.717188 17.909053
-4.5352416 -15.321865 17.349114
-4.5143657 -15.912823 16.791262
-4.4832813 -16.478745 16.252861
-4.3260919 2.4806975 19.496083
-4.4837272 1.3540671 20.443125
-4.5366502 0.46277434 21.127163
-4.5611648 -0.37397703 21.763393
-4.5966088 -1.1456487 22.266103
-4.6293335 -1.7073514 22.560941
-4.6802066 -2.2271676 22.812555
-4.7230691 -2.7793313 23.043096
-4.7552073 -3.3237455 23.219441
-4.8050094 -3.8367723 23.32228
-4.8186929 -4.3998135 23.389167
-4.8065928 -4.9988241 23.377859
-4.7990026 -5.6415183 23.33773
-4.8119935 -6.329998 23.224142
-4.8491824 -7.0321889 23.003396
-4.8784486 -7.6921041 22.743582
-4.9108085 -8.3629625 22.429445
-4.9450409 -9.0740806 22.048457
-4.9947331 -9.792309 21.642618
-5.0651665 -10.464736 21.232533
-5.1213369 -11.101237 20.803188
-5.1688081 -11.72563 20.386273
-5.2068377 -12.331849 19.946386
-5.2235822 -12.932312 19.48885
-5.2175377 -13.549468 18.9664
-5.19469 -14.147747 18.433458
-5.1703672 -14.760948 17.868446
-5.1329514 -15.361629 17.310653
-5.1120763 -15.952588 16.752802
-5.0974444 -16.534357 16.196616
-4.7662052 2.6181533 19.33536
-4.9210646 1.5128267 20.253712
-4.9862538 0.62789229 20.925042
-5.0490553 -0.2252531 21.555437
-5.0988883 -0.9381314 22.026858
-5.1308105 -1.5283323 22.330986
-5.161467 -2.0973704 22.608213
-5.2093316 -2.6394803 22.831982
-5.2370155 -3.189487 23.016363
-5.2503655 -3.7494581 23.139808
-5.2813002 -4.3028425 23.207475
-5.2860691 -4.9158294 23.235673
-5.2874034 -5.6240441 23.190241
-5.2986232 -6.3503472 23.055244
-5.3295922 -7.0255519 22.816589
-5.3637242 -7.698605 22.567883
-5.4236027 -8.3756172 22.27174
-5.4992218 -9.0932542 21.91118
-5.5624046 -9.8119957 21.514367
-5.6362391 -10.490003 21.114664
-5.7040952 -11.135873 20.690974
-5.7604797 -11.761859 20.270386
-5.8042025 -12.365595 19.851793
-5.8444219 -12.953968 19.416963
-5.870136 -13.57711 18.917611
-5.8606483 -14.161604 18.388418
-5.8411491 -14.765481 17.823387
-5.8154663 -15.360504 17.259223
-5.7915445 -15.959454 16.689564
-5.7769131 -16.541223 16.133378
-5.2237136 2.7554789 19.181329
-5.3912324 1.669989 20.046874
-5.4775029 0.77253768 20.713487
-5.528911 -0.090811794 21.350044
-5.5814791 -0.7513365 21.761202
-5.6221544 -1.3536262 22.095371
-5.6474537 -1.9326851 22.378947
-5.6812148 -2.5005289 22.624718
-5.7207801 -3.0531665 22.794705
-5.7464597 -3.6157988 22.92549
-5.7484802 -4.2175926 23.008461
-5.7773332 -4.8478892 23.034887
-5.7954806 -5.5851327 22.998576
-5.8283259 -6.333409 22.851155
-5.8678488 -7.0243717 22.613534
-5.9288996 -7.7034379 22.353853
-6.0075349 -8.3987588 22.063555
-6.0959884 -9.1025384 21.748529
-6.1746828 -9.8155817 21.378144
-6.2560243 -10.504824 20.978836
-6.3356027 -11.162324 20.56054
-6.3984785 -11.781401 20.141601
-6.4571835 -12.380529 19.727452
-6.5089713 -12.96021 19.300599
-6.5453651 -13.575325 18.815137
-6.5552365 -14.158615 18.323437
-6.5456925 -14.758162 17.763856
-6.5210894 -15.349521 17.20855
-6.4950973 -15.956929 16.631725
-6.469518 -16.547822 16.071781
-5.7231306 2.8437343 19.028415
-5.8891961 1.8049814 19.842048
-5.9772112 0.89834196 20.509498
-6.0313298 0.036983113 21.128373
-6.0896628 -0.5819928 21.495558
-6.1340823 -1.1786236 21.820852
-6.1758899 -1.7584782 22.11703
-6.2041126 -2.3385704 22.389833
-6.2283192 -2.9198413 22.565786
-6.2488221 -3.4902663 22.682242
-6.2709917 -4.1180272 22.757545
-6.2898856 -4.7951332 22.800997
-6.3284807 -5.5215219 22.755325
-6.3795595 -6.2703985 22.587264
-6.4444425 -7.0033686 22.38137
-6.5316471 -7.6982808 22.122595
-6.6217681 -8.3950685 21.817588
-6.7159835 -9.1016429 21.509084
-6.8088188 -9.8092172 21.198792
-6.9010006 -10.496457 20.826878
-6.9986258 -11.1722 20.413582
-7.0680591 -11.784372 19.996373
-7.1233828 -12.37942 19.585798
-7.1683287 -12.953177 19.186891
-7.2052092 -13.556296 18.717781
-7.2272692 -14.158028 18.231103
-7.2279305 -14.758904 17.687102
-7.2311076 -15.35099 17.147312
-7.1991815 -15.955201 16.581483
-7.1638364 -16.547425 16.030859
-6.2527276 2.9069551 18.862309
-6.4040836 1.9052819 19.624501
-6.4980179 1.0168878 20.294461
-6.5624329 0.2282203 20.836633
-6.623105 -0.39548669 21.205977
-6.6618304 -0.99609767 21.523904
-6.703444 -1.5804471 21.81924
-6.7402982 -2.1545781 22.103196
-6.7416343 -2.7554903 22.305613
-6.7675724 -3.373059 22.415088
-6.7971172 -3.9977568 22.485509
-6.8455654 -4.686318 22.485066
-6.8897716 -5.4196326 22.431039
-6.9617358 -6.1672736 22.274033
-7.0330527 -6.93891 22.091781
-7.1390904 -7.6994231 21.839565
-7.2489242 -8.3877161 21.552265
-7.3553066 -9.0924243 21.251524
-7.4582359 -9.7938056 20.940034
-7.5635887 -10.473978 20.634337
-7.6633084 -11.162682 20.257121
-7.7321099 -11.779297 19.859752
-7.7774871 -12.366633 19.459512
-7.8251174 -12.940642 19.063788
-7.8615013 -13.537682 18.623181
-7.884863 -14.148188 18.133334
-7.890834 -14.754822 17.601976
-7.8892006 -15.352467 17.069802
-7.8774633 -15.94615 16.540195
-7.8334761 -16.523257 16.016613
-6.8240802 2.9850236 18.656377
-6.9833325 2.0386119 19.375486
-7.0847073 1.1457573 20.046686
-7.1553579 0.46174933 20.511645
-7.2019908 -0.15161997 20.865578
-7.2451232 -0.76166777 21.187501
-7.2883213 -1.3506783 21.484097
-7.3141532 -1.9290388 21.76134
-7.3462235 -2.5493918 21.962592
-7.3502124 -3.203979 22.111401
-7.3928674 -3.8359351 22.16827
-7.4403897 -4.5210368 22.145987
-7.5010976 -5.254421 22.05518
-7.580025 -6.044076 21.907861
-7.6875304 -6.8320073 21.710205
-7.785712 -7.6247628 21.486587
-7.8874488 -8.3754414 21.244692
-7.993133 -9.0778167 20.964636
-8.1057827 -9.7797269 20.671787
-8.2141683 -10.45567 20.370299
-8.3149206 -11.131648 20.066728
-8.3824451 -11.762021 19.733097
-8.4259588 -12.349556 19.33413
-8.468184 -12.924181 18.942448
-8.5054695 -13.523925 18.527288
-8.5282549 -14.139264 18.039627
-8.5481143 -14.760361 17.519403
-8.5295847 -15.342491 17.00797
-8.5069875 -15.919727 16.49233
-8.4837676 -16.498028 15.9864
-7.4428091 3.0860646 18.421993
-7.6143637 2.1847289 19.108979
-7.7172633 1.2969934 19.775635
-7.7903623 0.70107042 20.145984
-7.8468827 0.11270755 20.483367
-7.8849387 -0.50250135 20.809106
-7.8950833 -1.1034321 21.121016
-7.9305454 -1.7218107 21.390208
-7.9707977 -2.3361714 21.580879
-8.0027849 -2.9791027 21.73655
-8.0109708 -3.6484148 21.81064
-8.058174 -4.3500293 21.79279
[...]
POINT_DATA 900
VECTORS normals float
-0.01962147 0.63962735 0.76843468
-0.024879306 0.62526685 0.78001435
-0.042236462 0.58751889 0.80810744
-0.04450514 0.53805819 0.84173195
-0.05478647 0.47931097 0.87593347
-0.059042975 0.44118414 0.89547221
-0.052974657 0.38944419 0.91952537
-0.045659201 0.31259289 0.94878919
-0.03602304 0.2099694 0.97704411
-0.03565386 0.082411006 0.99596046
-0.036818941 -0.020403296 0.99911364
-0.043137645 -0.091641235 0.99485729
-0.044404976 -0.16611435 0.9851062
-0.03970921 -0.24859719 0.96779265
-0.029753251 -0.3257649 0.94498253
-0.027590108 -0.38674845 0.92177244
-0.024437962 -0.4359231 0.89965207
-0.0077796253 -0.47624521 0.8792781
0.014161667 -0.53360959 0.84561236
0.020200377 -0.57401453 0.81859591
0.01970045 -0.59658042 0.80231147
0.016358861 -0.60040157 0.79953133
0.013482747 -0.61181228 0.79088808
0.019374517 -0.6285106 0.77755968
0.02932752 -0.65498568 0.75507196
0.033302143 -0.67413202 0.73785974
0.042540321 -0.68930736 0.72321897
0.05300214 -0.7004412 0.71173935
0.060083712 -0.70748045 0.70417424
0.060995295 -0.7128456 0.69866353
-0.035784537 0.64628898 0.76225325
-0.040540096 0.62621945 0.77859213
-0.058888258 0.60256727 0.79589249
-0.07638153 0.5471683 0.83353027
-0.092848098 0.48343385 0.87044296
-0.095229707 0.44867882 0.88860487
-0.10556262 0.41832652 0.90214159
-0.10209595 0.34562344 0.93280269
-0.11529299 0.23720221 0.96459455
-0.1250081 0.097461631 0.98735718
-0.13240846 -0.0070166344 0.9911704
-0.13450156 -0.082781109 0.98744955
-0.11730046 -0.16442307 0.97939045
-0.11201086 -0.24221335 0.96373558
-0.099310556 -0.31891271 0.94256676
-0.087801496 -0.37890484 0.9212611
-0.070525612 -0.42884619 0.90062039
-0.049044399 -0.47237347 0.88003293
-0.042254894 -0.52830406 0.84800315
-0.017721049 -0.57325297 0.81918679
-0.01411743 -0.59587714 0.80295151
-0.013896038 -0.60278534 0.79778238
-0.014347749 -0.61122206 0.7913291
-0.00048439667 -0.63233149 0.77469778
0.0072307815 -0.65376329 0.75666458
0.013580064 -0.67114283 0.74120367
0.023032993 -0.68723168 0.72607307
0.033369115 -0.69725978 0.71604141
0.038913932 -0.70706469 0.70607736
0.036847146 -0.71693724 0.69616326
-0.050245038 0.64920823 0.75894935
-0.053713609 0.62932049 0.77528741
-0.07524145 0.60115813 0.79558006
-0.096630668 0.56086163 0.82225102
-0.11926575 0.49119592 0.86284544
-0.13561988 0.45170934 0.88179698
-0.1448638 0.42523284 0.89341564
-0.16468651 0.36380105 0.91680268
-0.18347969 0.2581275 0.94852802
-0.19111711 0.11310572 0.9750289
-0.19372113 0.0040949455 0.98104809
-0.18947893 -0.076975954 0.97886283
-0.1837899 -0.15641807 0.97044045
-0.17493421 -0.23412309 0.95633906
-0.158564 -0.30705019 0.93839098
-0.13919576 -0.37110846 0.91809752
-0.11410018 -0.41346335 0.90334335
-0.091010303 -0.46331102 0.88151008
-0.074904832 -0.52216098 0.84955116
-0.063059531 -0.57483221 0.81583787
-0.055127769 -0.59657884 0.80065887
-0.044286252 -0.59718049 0.80088338
-0.038023406 -0.60445584 0.79573071
-0.030284836 -0.62632936 0.77897006
-0.017407825 -0.65321216 0.75697479
-0.007169788 -0.66492052 0.74687971
0.0046523413 -0.68179852 0.73152521
0.014457422 -0.69763631 0.71630619
0.027000891 -0.70865185 0.70504149
0.025074819 -0.71913515 0.69441767
-0.060578783 0.65333288 0.7546432
-0.06544735 0.63475531 0.76993659
-0.087979126 0.59853142 0.79625361
-0.11111997 0.56085427 0.82042357
-0.14119465 0.49935338 0.85481593
-0.15973278 0.4537486 0.87669701
-0.17810147 0.42157503 0.88913124
-0.19074208 0.37179153 0.90850895
-0.23042617 0.26820509 0.93539821
-0.25499145 0.12525193 0.9587968
-0.25576889 0.004111954 0.96672921
-0.25678866 -0.069303067 0.9639796
-0.24445756 -0.15038998 0.95792659
-0.23136507 -0.22724369 0.94595481
-0.21231804 -0.30022069 0.9299401
-0.19103721 -0.35082202 0.91674898
-0.16084265 -0.39418466 0.904847
-0.13295365 -0.45114487 0.88249172
-0.10884498 -0.51923377 0.84767274
-0.095658329 -0.57119431 0.81522178
-0.088728983 -0.58886707 0.80334472
-0.075220755 -0.58620018 0.80666671
-0.0669882 -0.59892267 0.79800014
-0.054594559 -0.62420022 0.77935456
-0.045117053 -0.64151971 0.76577863
-0.035823272 -0.66109054 0.74945046
-0.023145887 -0.68022282 0.73263987
-0.01225618 -0.6960744 0.71786504
-0.0029386107 -0.70982911 0.7043678
0.0040403208 -0.72016374 0.69379238
-0.076910344 0.65673439 0.75018981
-0.087170537 0.63307025 0.76917057
-0.10665357 0.60301285 0.79056974
-0.14039506 0.55449949 0.82025578
-0.16979061 0.49914899 0.84971844
-0.19323052 0.45019352 0.87177277
-0.20657774 0.4179016 0.88469423
-0.23563037 0.36484886 0.90075726
-0.26830734 0.27108154 0.92440574
-0.30279283 0.15509922 0.94035139
-0.31384019 0.024272336 0.94916552
-0.30707181 -0.055385891 0.95007332
-0.29860296 -0.13673706 0.94453123
-0.28065848 -0.21442271 0.93554996
-0.2653531 -0.28112145 0.92225726
-0.24203914 -0.33076547 0.91214651
-0.21869936 -0.37230671 0.90197467
-0.18170236 -0.4344516 0.88217689
-0.15455403 -0.50695437 0.84800373
-0.12826849 -0.55250683 0.82357962
-0.11147497 -0.57871736 0.80787348
-0.10257248 -0.58343014 0.80566007
-0.087137513 -0.60125657 0.79429062
-0.079286051 -0.61762023 0.78246979
-0.066945787 -0.63672916 0.76817591
-0.059264785 -0.65602392 0.75240967
-0.051194205 -0.67314587 0.73773558
-0.035063931 -0.69274679 0.72032798
-0.026706277 -0.70617962 0.70752888
-0.019335236 -0.7169701 0.69683573
-0.090744491 0.65708045 0.74833864
-0.10506405 0.6353055 0.7650807
-0.12261723 0.60147566 0.78942513
-0.15741116 0.55365799 0.81773135
-0.19675551 0.49983304 0.84347745
-0.2174067 0.45396015 0.86409172
-0.23074158 0.41454206 0.88029154
-0.25833263 0.35862676 0.89702347
-0.31763705 0.26655979 0.90997395
-0.34108584 0.16585507 0.92528512
-0.35261231 0.041847453 0.93483333
-0.35039356 -0.043197227 0.93560588
-0.33808833 -0.13057821 0.9320116
-0.32503438 -0.2077384 0.9226036
-0.30603715 -0.26293264 0.91499054
-0.282731 -0.30910968 0.90802775
-0.26265993 -0.34968438 0.8992945
-0.23064875 -0.40485697 0.88481184
-0.18514727 -0.49856808 0.8468473
-0.15256057 -0.548707 0.82197682
-0.12567861 -0.56290352 0.81691157
-0.11739782 -0.5752031 0.80954255
-0.10436981 -0.59550934 0.79653975
-0.09433018 -0.61026534 0.78656089
-0.08630155 -0.63341058 0.76898835
-0.077983876 -0.65662955 0.75017074
-0.069727461 -0.66906632 0.73992455
-0.056509116 -0.68602702 0.72537828
-0.042315231 -0.6999837 0.71290409
-0.031561589 -0.71104439 0.70243843
-0.10598733 0.66018609 0.74358658
-0.12228983 0.63281153 0.76458797
-0.15201327 0.59808137 0.78688668
-0.18532419 0.55173501 0.81316875
-0.21032305 0.50740412 0.83564662
-0.24101555 0.46202954 0.85348709
-0.26814042 0.40699396 0.87318763
-0.29262822 0.34526801 0.89171673
-0.32052894 0.26844748 0.90840363
-0.36147427 0.16326129 0.91797718
-0.39053138 0.056938446 0.91882711
-0.38939161 -0.023460014 0.92077348
-0.38331166 -0.10893371 0.91717262
-0.37091655 -0.18917886 0.9091932
-0.34939717 -0.24351912 0.90477625
-0.33649372 -0.28849352 0.89640586
-0.31003779 -0.32430995 0.89369996
-0.27640585 -0.37300184 0.88570279
-0.23253847 -0.4560893 0.85901596
-0.19384282 -0.50887725 0.83873054
-0.15850425 -0.5465042 0.82231963
-0.13818706 -0.57079278 0.80938244
-0.12714853 -0.58333442 0.80221831
-0.11245771 -0.60298929 0.78978299
-0.10504215 -0.62727522 0.77168125
-0.094929233 -0.65135208 0.75281399
-0.082637842 -0.66466017 0.74256168
-0.071385287 -0.67855226 0.73107521
-0.055226186 -0.69070357 0.72102611
-0.043430397 -0.70254277 0.71031504
-0.12523302 0.65812486 0.74242061
-0.14669814 0.63046254 0.76223136
-0.17406893 0.59089235 0.78774757
-0.21420893 0.54660158 0.8095315
-0.2420592 0.50037744 0.831282
-0.27052007 0.46051093 0.84542804
-0.2945691 0.41496468 0.86083295
-0.32045416 0.34744437 0.88124431
-0.36679258 0.24150374 0.89840923
-0.3950465 0.16576959 0.90358104
-0.41982157 0.063868232 0.90535667
-0.42965708 -0.023404101 0.90268879
-0.43168295 -0.09515864 0.89699201
-0.42416915 -0.16100694 0.89115504
-0.40623192 -0.21544064 0.88800955
-0.38968698 -0.25791842 0.88409397
-0.3677404 -0.30148626 0.87970053
-0.33413203 -0.3474638 0.87614194
-0.28715503 -0.40704486 0.86709657
-0.23366762 -0.47369868 0.84912249
-0.19324918 -0.51703388 0.83386493
-0.16702382 -0.55108124 0.81756499
-0.14787682 -0.57195845 0.80684322
-0.13208448 -0.5916922 0.79526979
-0.11918968 -0.6216794 0.77415021
-0.10591298 -0.64230849 0.75909304
-0.0940674 -0.65715183 0.74786549
-0.080900362 -0.6705485 0.73744141
-0.06816221 -0.68018089 0.72986839
-0.059417027 -0.68972707 0.72162745
-0.1421629 0.65581768 0.74141276
-0.16935337 0.62466669 0.76230634
-0.20187745 0.58525462 0.78531683
-0.23240102 0.54169943 0.80780659
-0.26311204 0.49734035 0.82669501
-0.29921303 0.45937029 0.83633157
-0.32850292 0.41038936 0.85068584
-0.35331907 0.34812276 0.86831802
-0.38077094 0.25852756 0.88779333
-0.415175 0.15956817 0.89563816
-0.44621119 0.061364653 0.89282135
-0.45897947 -0.020438478 0.88821175
-0.46975684 -0.080042085 0.8791597
-0.47003116 -0.14213167 0.87113105
-0.4548538 -0.18970911 0.87012555
-0.44012323 -0.22705969 0.86875511
-0.42252285 -0.25915273 0.86851269
-0.38814524 -0.31052307 0.86770888
-0.33473497 -0.35903364 0.87123323
-0.28820488 -0.42967313 0.85575636
-0.24224726 -0.49563072 0.83406622
-0.198837 -0.52904633 0.82496899
-0.17464618 -0.54784041 0.81815011
-0.15518136 -0.57454706 0.8036258
-0.13419649 -0.61221298 0.77922177
-0.11774681 -0.63676631 0.76201335
-0.10374081 -0.64971877 0.75306265
-0.09011193 -0.66604743 0.74044626
-0.077338133 -0.67245759 0.73608396
-0.07061783 -0.68199847 0.72793627
-0.1655714 0.64625957 0.74493938
-0.19390857 0.61476787 0.76449979
-0.22237914 0.5832542 0.78125671
-0.25912296 0.53286176 0.80555176
-0.28297884 0.4957247 0.82108465
-0.31525304 0.44960762 0.83574428
-0.34557698 0.4065607 0.8457452
-0.38436092 0.34808603 0.8550455
-0.42206722 0.24138792 0.87383702
-0.44901008 0.15384763 0.88018228
-0.47623733 0.065626969 0.87686436
-0.48406212 -0.014721854 0.87490979
-0.49794999 -0.07551074 0.86391199
-0.50347159 -0.12231839 0.85530963
-0.49849552 -0.16291383 0.85144659
-0.47850603 -0.19553043 0.85603729
-0.46253178 -0.22249888 0.85822993
-0.43938466 -0.25316642 0.86188624
-0.39912309 -0.30473374 0.86477634
-0.36034123 -0.37907587 0.8523237
-0.31944478 -0.44808092 0.83497217
-0.26147274 -0.4919464 0.83043407
-0.21853137 -0.52674705 0.8214509
-0.18872877 -0.55550524 0.80981194
-0.16611104 -0.59341238 0.7875715
-0.13510759 -0.62851233 0.76597532
-0.11581417 -0.64465281 0.75565192
-0.10406691 -0.65729082 0.74641735
-0.092061461 -0.66769309 0.73872229
-0.082804138 -0.67838099 0.73002925
-0.18415465 0.64263034 0.74371588
-0.21243127 0.60660881 0.76609315
-0.24693336 0.56533567 0.78703208
-0.2818758 0.52482076 0.8031869
-0.30980257 0.48344138 0.81872266
-0.34576893 0.43366307 0.83209386
-0.37190912 0.39040618 0.84217968
-0.4070546 0.33898454 0.84817217
-0.45009396 0.2454304 0.85859149
-0.47948965 0.15574387 0.86361654
-0.50195417 0.069439795 0.86210216
-0.51783677 -0.001739294 0.85547767
-0.52606112 -0.07405929 0.84721598
-0.53003948 -0.11012035 0.84079228
-0.52514623 -0.13894471 0.83959264
-0.51563551 -0.16098716 0.84154807
-0.49900312 -0.1888074 0.84578227
-0.4838705 -0.20702749 0.85029933
-0.46118283 -0.24630839 0.85243332
-0.43313622 -0.31405228 0.84484565
-0.39836672 -0.38378558 0.83307418
-0.33620188 -0.43055291 0.83761118
-0.28362086 -0.48016242 0.8300622
-0.23551002 -0.53087641 0.81406712
-0.20128335 -0.56825476 0.79785434
-0.16915579 -0.60190715 0.78044481
-0.13493242 -0.63583875 0.75993574
-0.11378071 -0.65201912 0.74961658
-0.10404182 -0.66135191 0.74282498
-0.096074109 -0.67272428 0.73362921
-0.20970977 0.6270225 0.75024303
-0.2342387 0.59963671 0.76522418
-0.26775061 0.55795033 0.78549414
-0.30161822 0.51647598 0.80142312
-0.33207089 0.47168802 0.81684719
-0.36656789 0.42444797 0.8279323
-0.39810032 0.37196021 0.8385474
-0.43276395 0.32161506 0.8421871
-0.46246067 0.26250684 0.84688859
-0.48970231 0.17917528 0.85328065
-0.52862955 0.079348045 0.8451359
-0.54461445 -0.0032801655 0.83868012
-0.55375153 -0.062857323 0.83030609
-0.55291057 -0.097170213 0.82755534
-0.5453688 -0.12098424 0.82941888
-0.53637214 -0.14218257 0.83191889
-0.52376001 -0.16479254 0.83577441
-0.51300313 -0.18462977 0.83829567
-0.49959384 -0.21739101 0.8385387
-0.48266818 -0.25929079 0.83654032
-0.44107145 -0.31910141 0.83882672
-0.39430899 -0.36636149 0.84279278
-0.34431015 -0.41106164 0.84408462
-0.29590067 -0.47042298 0.83135132
-0.24246553 -0.53056626 0.81222528
-0.19994618 -0.57886284 0.79053105
-0.16831248 -0.60899449 0.77511071
-0.13336162 -0.63274 0.76279406
-0.1152551 -0.65087576 0.75038457
-0.10005338 -0.66286845 0.74202071
-0.23371731 0.61847393 0.7502441
-0.26224841 0.5824142 0.76942801
-0.28962925 0.54524749 0.78665118
-0.31232412 0.51669815 0.7971679
-0.34482029 0.47029361 0.81235638
-0.38488765 0.4174165 0.82317979
-0.4217755 0.35698878 0.83346532
-0.45679007 0.31217867 0.83299899
-0.48638997 0.25204922 0.83659786
-0.51695405 0.17190473 0.83857455
-0.54475673 0.090757758 0.83366848
-0.56978942 0.0065343057 0.82176476
-0.57708387 -0.053906601 0.81490385
-0.57377742 -0.08211027 0.81488489
-0.5670786 -0.10154968 0.81737967
-0.55656085 -0.1223871 0.82174292
-0.54354753 -0.14920872 0.8260102
-0.52812688 -0.17210977 0.83154087
-0.51288398 -0.19573526 0.83584552
-0.49844629 -0.22502356 0.83720708
-0.47696123 -0.26310754 0.83861935
-0.4397759 -0.31204755 0.84215408
-0.40327844 -0.35890579 0.84175598
-0.35499085 -0.42223269 0.83408696
-0.30468134 -0.4794037 0.82300752
-0.24885071 -0.53354341 0.80833455
-0.20639941 -0.58115554 0.78718328
-0.16407045 -0.6072508 0.77738495
-0.12968587 -0.63689322 0.75996619
-0.11238217 -0.65139995 0.75036548
-0.2532778 0.61087832 0.75011868
-0.28032561 0.57278389 0.77028318
-0.30735209 0.54441802 0.78047659
-0.33500949 0.49991338 0.79865841
-0.36370622 0.45985982 0.81009057
-0.40287289 0.40417817 0.82117808
-0.44704675 0.34107468 0.82693244
-0.480003 0.28951609 0.82811687
-0.51627307 0.23040533 0.82484877
-0.54183193 0.16568876 0.82399357
-0.56410582 0.086066401 0.82120472
-0.58692023 0.014655689 0.80951211
-0.59334237 -0.045086183 0.80368655
-0.59066738 -0.067484125 0.80408826
-0.58025824 -0.088596049 0.80959935
-0.57140226 -0.10276752 0.81421022
-0.55958258 -0.12941003 0.81860881
-0.54504997 -0.15468535 0.8240103
-0.53202814 -0.17973181 0.82743129
-0.5204704 -0.20271256 0.82946861
-0.50387323 -0.22499698 0.83395931
-0.48348207 -0.26079388 0.83560256
-0.44444622 -0.31908735 0.83704888
-0.40209453 -0.37524887 0.83516961
-0.35736847 -0.43024031 0.82896384
-0.30652293 -0.48939804 0.81641488
-0.25993889 -0.53214816 0.80576058
-0.21070354 -0.57789422 0.78844295
-0.16325107 -0.61097229 0.77463666
-0.13067803 -0.64007283 0.75711955
-0.27214819 0.60485487 0.7483889
-0.29697013 0.56532591 0.7695553
-0.32057187 0.54147886 0.77719645
-0.3511058 0.49168015 0.7968534
-0.38696029 0.44400794 0.80815759
-0.42075841 0.39225562 0.81798404
-0.4768387 0.31876053 0.81915602
-0.50479087 0.26522819 0.82148657
-0.539113 0.21870869 0.81334106
-0.56291188 0.15177486 0.81246206
-0.58446257 0.080895306 0.80737813
-0.59993199 0.022257726 0.79974133
-0.60414053 -0.025289212 0.79647641
-0.5980501 -0.055844362 0.79951078
-0.59115706 -0.06837759 0.80365281
-0.58354885 -0.085286955 0.80758707
-0.57435022 -0.10431721 0.8119358
-0.56068547 -0.13403277 0.81710894
-0.547258 -0.15911881 0.82169938
-0.5358998 -0.18066753 0.82472459
-0.52348604 -0.20145137 0.82787663
-0.50941534 -0.22500118 0.83058442
-0.47764271 -0.26682245 0.83705628
-0.44309709 -0.31979923 0.83749234
-0.39980828 -0.3803922 0.83393951
-0.35316877 -0.44845907 0.8210702
-0.31521464 -0.49374739 0.81046483
-0.2680895 -0.54208719 0.79641039
-0.21331627 -0.56873049 0.7943814
-0.16561887 -0.61245711 0.77295969
-0.29440362 0.59423167 0.74847527
-0.31929372 0.56188449 0.76311031
-0.34687073 0.52606239 0.77649151
-0.37758587 0.47600787 0.79425777
-0.41837984 0.41701715 0.8068798
-0.45452794 0.36052534 0.81450956
-0.48797795 0.30551144 0.81764313
-0.52743265 0.24767529 0.81269413
-0.55179873 0.20649289 0.80800919
-0.58226341 0.14640435 0.79970937
-0.5997564 0.084335815 0.79572591
-0.60777658 0.024849378 0.79371918
-0.61098945 -0.014811003 0.79150018
-0.60629176 -0.046074517 0.79390644
-0.60156432 -0.054950041 0.79693216
-0.59450379 -0.070781025 0.80097146
-0.58732319 -0.088735575 0.80447341
-0.57784162 -0.11219496 0.80840049
-0.56626649 -0.13491973 0.8131045
-0.55306814 -0.15545858 0.81850367
-0.53582451 -0.1828074 0.82430186
-0.52653553 -0.20006808 0.82627665
-0.51255805 -0.22659172 0.82821521
-0.48705166 -0.26080728 0.83352279
-0.44882863 -0.31456699 0.83642123
-0.41543095 -0.38110926 0.82593756
-0.36754085 -0.43836846 0.82021145
-0.32448134 -0.47870871 0.81581238
-0.26464886 -0.52516284 0.80880466
-0.21443 -0.57225398 0.79154605
-0.31454578 0.58452744 0.74792287
-0.34416315 0.55059313 0.76052543
-0.37131828 0.51488269 0.77266975
-0.40962256 0.45881188 0.7884802
-0.44073105 0.40972862 0.79867302
-0.47589031 0.347278 0.80803861
-0.5105216 0.28631175 0.81079793
-0.55412351 0.21844812 0.80326058
-0.57823445 0.17314154 0.79728723
-0.59838048 0.13309319 0.79008038
-0.61524195 0.079078992 0.78436207
-0.62309794 0.031747647 0.78149923
-0.62212244 -0.0073350308 0.7828856
-0.6183456 -0.030254036 0.78532376
-0.61053777 -0.044195856 0.79075303
-0.60408824 -0.057739561 0.79482296
-0.59583622 -0.075337682 0.79956453
-0.59025308 -0.093845753 0.80174452
-0.58132126 -0.11101308 0.80606556
-0.56948908 -0.12831572 0.81192196
-0.55370726 -0.15383283 0.81837872
-0.54313701 -0.17769364 0.82062608
-0.52985005 -0.20495912 0.82295242
-0.51088547 -0.23298937 0.82747326
-0.48725714 -0.27274615 0.82957219
-0.45385503 -0.33981497 0.82373624
-0.40744375 -0.40093182 0.82051403
-0.36399127 -0.42947017 0.82647791
-0.3207729 -0.47192386 0.82121411
-0.2630898 -0.52824583 0.80730422
-0.33692056 0.57446552 0.74597178
-0.36288598 0.53996895 0.75943881
-0.3944042 0.499749 0.77116552
-0.43644163 0.44765835 0.78046185
-0.4680775 0.4007762 0.78757977
-0.5062029 0.32895182 0.79721348
-0.53489977 0.26339553 0.80281071
-0.5747379 0.19058825 0.79583445
-0.59722871 0.14891487 0.78812577
-0.61293099 0.11448159 0.78179893
-0.62572888 0.071728907 0.77673569
-0.62908703 0.03573372 0.77651311
-0.63264267 0.0050835536 0.77442715
-0.63026444 -0.020261134 0.77611611
-0.62132846 -0.029682758 0.78298779
-0.61317656 -0.044478341 0.78869271
-0.60835733 -0.057452403 0.79158107
-0.60057997 -0.076877867 0.79586022
-0.59308213 -0.095155687 0.79949921
-0.58648637 -0.10826059 0.80269134
-0.5719233 -0.13049069 0.80986167
-0.55919038 -0.15854013 0.81373899
-0.54852032 -0.18240311 0.81599912
-0.53384747 -0.20364551 0.82069202
-0.50973273 -0.24559101 0.82453478
-0.47371389 -0.29630129 0.8293375
-0.43717586 -0.35657284 0.82567129
-0.3887694 -0.38901496 0.83518005
-0.3575117 -0.43565053 0.82607143
-0.30810943 -0.49802054 0.81058258
-0.36126387 0.56866501 0.73899156
-0.39365236 0.52621654 0.75374662
-0.41952271 0.49088899 0.76356316
-0.46933063 0.42822812 0.77223664
-0.50223957 0.37163768 0.78079501
-0.53871025 0.30144572 0.78671579
-0.57692239 0.22394043 0.78550063
-0.593777 0.17403641 0.78558271
-0.61092879 0.13462796 0.78015468
-0.61974186 0.10893993 0.7772079
-0.63307331 0.067230371 0.77116682
-0.63597758 0.036351636 0.77085088
-0.63865938 0.0097586736 0.76942769
-0.63974148 0.0013297801 0.76858902
-0.63441482 -0.015296454 0.77284142
-0.62681451 -0.028492733 0.77864737
-0.6145447 -0.046663847 0.78750067
-0.60863379 -0.061516122 0.791063
-0.6038285 -0.081512324 0.79293561
-0.59517924 -0.097672833 0.79763506
-0.58471249 -0.11459032 0.80310669
-0.57668242 -0.13983269 0.80491254
-0.56307039 -0.16361279 0.81005098
-0.54992525 -0.18451437 0.8145776
-0.52955096 -0.21831365 0.81970417
-0.50232631 -0.26270653 0.82380432
-0.46943774 -0.30217372 0.82965008
-0.44121158 -0.34180843 0.8297586
-0.40533931 -0.3902482 0.82668397
-0.36185519 -0.44448896 0.81944517
-0.39451994 0.56232683 0.72673417
-0.42466545 0.51615115 0.74380592
-0.45638814 0.47378236 0.75315347
-0.4971439 0.40863641 0.76541768
-0.54078992 0.33916944 0.76974694
-0.5699841 0.27561987 0.77404898