# vtk DataFile Version 2.0
Grain example
ASCII
DATASET UNSTRUCTURED_GRID
POINTS 900 float
-22.442715 -2.1472386 7.5065195
-22.130246 -0.89691229 7.5038596
-21.787804 0.29226972 7.487029
-21.420528 1.365506 7.4343399
-20.993478 2.2745433 7.3883519
-20.61033 2.8937944 7.4009848
-20.236338 3.4981493 7.4208252
-19.867789 4.0820952 7.4247407
-19.481746 4.6529708 7.4330516
-19.040853 5.2353558 7.4517041
-18.582827 5.7987857 7.4912282
-18.103784 6.3525453 7.5275578
-17.596985 6.9181233 7.5768096
-17.018494 7.5016476 7.6070564
-16.425803 8.0869236 7.631982
-15.835497 8.6693736 7.6566101
-15.233814 9.2230987 7.6692586
-14.664667 9.7008907 7.6803082
-14.126905 10.130049 7.6962825
-13.6631 10.482833 7.6942251
-13.21875 10.802117 7.6985104
-12.793629 11.090247 7.7090324
-12.376166 11.348239 7.7199821
-11.986992 11.57141 7.7598222
-11.445743 11.846734 7.7542671
-10.891395 12.129317 7.7468451
-10.342897 12.410472 7.7383323
-9.7763004 12.701112 7.7247766
-9.1918182 13.007749 7.6855037
-8.5688881 13.336958 7.6363649
-22.668956 -2.1874637 6.8734195
-22.346483 -0.91281836 6.8631052
-22.006642 0.30334214 6.8358978
-21.631502 1.4054567 6.7990672
-21.221031 2.2389452 6.7708454
-20.837601 2.8580264 6.7835474
-20.447069 3.4672732 6.806413
-20.059144 4.068731 6.8211807
-19.664921 4.6638927 6.8376346
-19.240681 5.2414538 6.853235
-18.801345 5.8217305 6.8797919
-18.319637 6.3832453 6.9242335
-17.769456 6.9782911 6.9560802
-17.191147 7.5817701 6.993066
-16.596215 8.1729358 7.022098
-15.999542 8.7624247 7.0515925
-15.391273 9.341509 7.0881565
-14.813665 9.8334834 7.1080688
-14.26844 10.271892 7.1411079
-13.753325 10.684102 7.1657359
-13.264537 11.059021 7.1672796
-12.821669 11.372318 7.1635772
-12.396096 11.665142 7.1738818
-12.000022 11.919759 7.2009311
-11.513019 12.176822 7.2058047
-10.956419 12.463009 7.1986015
-10.402923 12.746391 7.1869141
-9.8176824 13.051719 7.160003
-9.2268978 13.364477 7.121602
-8.5812276 13.701211 7.0563647
-22.87691 -2.227118 6.2197358
-22.551554 -0.9246978 6.2122237
-22.207189 0.30802821 6.1929263
-21.82509 1.4246661 6.1727136
-21.436804 2.1854326 6.1690208
-21.069262 2.7848913 6.1717146
-20.676029 3.3974708 6.1949075
-20.278474 4.0077184 6.2150879
-19.875296 4.6046282 6.2372804
-19.45434 5.2106474 6.2624702
-19.017137 5.8120846 6.2872083
-18.516532 6.4116243 6.3006511
-17.946162 7.0201921 6.331654
-17.360533 7.6396809 6.37311
-16.766695 8.2592713 6.4081372
-16.170809 8.8442702 6.4377673
-15.570238 9.4177955 6.4771801
-14.982958 9.947203 6.5167975
-14.438179 10.390851 6.5494033
-13.908979 10.816323 6.5840919
-13.376357 11.242491 6.6153856
-12.882713 11.61887 6.6258978
-12.448086 11.936304 6.6323786
-12.029407 12.227481 6.65352
-11.578043 12.510515 6.6575627
-11.019643 12.795612 6.6507953
-10.451648 13.090657 6.6331927
-9.8568125 13.405931 6.5954479
-9.2528833 13.716267 6.5517836
-8.5872656 14.071586 6.4772393
-23.048686 -2.2690828 5.5775622
-22.738942 -0.93876124 5.5852671
-22.390511 0.29178523 5.5628939
-22.004388 1.4150722 5.5551826
-21.638138 2.093659 5.5685866
-21.266953 2.7245498 5.5861186
-20.889331 3.3275596 5.5946589
-20.483903 3.9280742 5.6170702
-20.078472 4.5335562 5.6391555
-19.657018 5.1470082 5.6599186
-19.209459 5.7645317 5.6856953
-18.71251 6.4038239 5.6917492
-18.13938 7.0262446 5.7224023
-17.537332 7.6609679 5.7580984
-16.932404 8.2980125 5.7982654
-16.337114 8.9026748 5.8345662
-15.73535 9.4900955 5.8773491
-15.154641 10.018231 5.9197619
-14.605588 10.500097 5.9709298
-14.07544 10.930246 6.0014617
-13.536515 11.367501 6.0333029
-13.021043 11.783895 6.06581
-12.536991 12.160262 6.0865055
-12.09156 12.491026 6.0942973
-11.651987 12.790563 6.1029538
-11.068274 13.14039 6.0889777
-10.490377 13.439375 6.0731205
-9.8828933 13.757212 6.0337248
-9.2543739 14.084174 5.9696996
-8.5842539 14.446701 5.8955922
-23.205921 -2.318998 4.9267299
-22.909642 -0.95242349 4.9535773
-22.565039 0.26965403 4.9431081
-22.207885 1.3003376 4.9477352
-21.837586 1.9814401 4.9617935
-21.469637 2.6335939 4.9853574
-21.083104 3.2554801 5.0025436
-20.67713 3.8611996 5.0166418
-20.265352 4.4680903 5.0358783
-19.848398 5.0792989 5.0558783
-19.376476 5.7111003 5.0614017
-18.880071 6.3551208 5.0751169
-18.340282 7.0048894 5.1012716
-17.738944 7.6532168 5.1561358
-17.138941 8.2817543 5.1958644
-16.534917 8.9063055 5.2366685
-15.910257 9.5310693 5.2775919
-15.317101 10.081192 5.3251214
-14.76634 10.576359 5.3838439
-14.230746 11.036851 5.4296508
-13.690873 11.473816 5.4576617
-13.18445 11.890435 5.4923638
-12.675327 12.30542 5.5277198
-12.173672 12.696254 5.5469851
-11.680836 13.063756 5.5498349
-11.143761 13.405334 5.5512105
-10.524609 13.775435 5.5147879
-9.8909743 14.097598 5.476357
-9.2345949 14.447155 5.4205265
-8.5671767 14.801383 5.3464173
-23.339726 -2.365776 4.3167992
-23.055163 -1.0034659 4.3617614
-22.722682 0.22339685 4.3848938
-22.373657 1.1546812 4.3943985
-22.021043 1.8605399 4.4153771
-21.637795 2.5084013 4.442318
-21.241494 3.1632648 4.4714394
-20.846815 3.780504 4.4865381
-20.426035 4.3918818 4.5073006
-19.983462 5.0110742 4.5157956
-19.511138 5.6423477 4.5254756
-19.014957 6.284021 4.539299
-18.493714 6.9394785 4.5694113
-17.915657 7.5860897 4.6237199
-17.308608 8.2400449 4.6914924
-16.698038 8.8762103 4.7409406
-16.077855 9.5167779 4.7880029
-15.488392 10.072295 4.8425135
-14.911725 10.603375 4.912202
-14.358444 11.089848 4.9679641
-13.815155 11.543482 5.0117365
-13.296531 11.967902 5.0443538
-12.774308 12.390145 5.0778421
-12.248032 12.819871 5.1116596
-11.716932 13.22879 5.1195323
-11.192894 13.622967 5.1148202
-10.542995 14.005116 5.0717035
-9.8793116 14.390557 5.0069136
-9.2102323 14.752865 4.9447333
-8.5366071 15.112703 4.8795938
-23.407707 -2.4418869 3.8554598
-23.138211 -1.1206983 3.9081532
-22.826347 0.15611222 3.9561655
-22.503353 0.98946792 3.9587461
-22.138042 1.7080781 3.973376
-21.764239 2.3765585 3.9970529
-21.370591 3.0333114 4.0214733
-20.970148 3.6812674 4.0438038
-20.547872 4.307493 4.0517729
-20.08828 4.9346217 4.0510675
-19.618832 5.5654373 4.0561546
-19.132605 6.1929803 4.0729326
-18.612843 6.8424508 4.0950558
-18.0558 7.5092049 4.1397505
-17.466238 8.1603395 4.1960896
-16.85161 8.8252586 4.2687168
-16.230331 9.4742447 4.3275723
-15.653042 10.049941 4.3904184
-15.064575 10.599282 4.4532138
-14.492619 11.109511 4.507154
-13.937593 11.597413 4.5631749
-13.408391 12.035301 4.5970492
-12.868292 12.477097 4.6247895
-12.340169 12.905988 4.6549942
-11.782149 13.357659 4.6735887
-11.214804 13.785801 4.6673269
-10.574033 14.222297 4.6309211
-9.8778436 14.63831 4.5626193
-9.1877198 15.049474 4.4732043
-8.522241 15.413961 4.410153
-23.455848 -2.5212039 3.4145062
-23.190245 -1.20731 3.4628504
-22.902385 0.033501881 3.5204919
-22.604294 0.8363706 3.5321585
-22.242489 1.547736 3.5384714
-21.87678 2.2409854 3.5588861
-21.488933 2.9065002 3.577517
-21.080742 3.5652367 3.5926266
-20.648868 4.2113422 3.5891092
-20.183966 4.8545595 3.596504
-19.720825 5.469321 3.6013693
-19.247874 6.0875141 3.616075
-18.721247 6.7440071 3.6391266
-18.176991 7.4184462 3.6726482
-17.600042 8.0781752 3.7258713
-17.000336 8.7395962 3.7835879
-16.378236 9.4077269 3.8534753
-15.787239 10.025191 3.9284767
-15.199778 10.595014 3.9897251
-14.636184 11.117186 4.0492721
-14.079702 11.609458 4.10126
-13.532582 12.090577 4.1440041
-12.982531 12.546504 4.1687896
-12.430813 12.992053 4.186511
-11.845598 13.458204 4.1934929
-11.254084 13.925509 4.201674
-10.659095 14.362894 4.1842346
-9.8869916 14.873751 4.1008218
-9.1916051 15.30075 4.0235556
-8.5110513 15.707063 3.942625
-23.467106 -2.5640841 2.9907471
-23.225717 -1.2747082 3.0277194
-22.949309 -0.16435332 3.0673576
-22.680431 0.69338311 3.1058831
-22.323127 1.4074719 3.1111078
-21.964524 2.0956553 3.122335
-21.592423 2.7856023 3.1361776
-21.173596 3.444572 3.1291774
-20.734613 4.1056768 3.1341964
-20.287264 4.7446151 3.1383219
-19.825113 5.3693444 3.1504141
-19.360893 5.9856534 3.1594366
-18.829427 6.6479104 3.1830881
-18.280734 7.3236744 3.2133799
-17.718204 7.9997554 3.2464502
-17.107163 8.6757145 3.2974231
-16.508419 9.3383944 3.3589027
-15.915487 9.9690238 3.4415141
-15.323754 10.574581 3.5214869
-14.763575 11.120891 3.5827999
-14.205911 11.622382 3.6344223
-13.652645 12.114401 3.6817353
-13.085027 12.599151 3.7122241
-12.520882 13.057333 3.7275893
-11.930398 13.52583 3.727402
-11.318887 14.011971 3.7222285
-10.697781 14.508062 3.706221
-9.9620577 15.018799 3.6477839
-9.2212215 15.517498 3.5770277
-8.5131835 15.956994 3.4974597
-23.442989 -2.5982875 2.5695342
-23.201776 -1.3085205 2.6024036
-22.959418 -0.33538295 2.627993
-22.708452 0.50395675 2.6560204
-22.384859 1.2756367 2.6870146
-22.026258 1.9638201 2.6982418
-21.639067 2.660955 2.6944612
-21.235988 3.3344235 2.683324
-20.808663 3.9829972 2.682766
-20.364687 4.6264614 2.6859115
-19.913831 5.2627107 2.6990041
-19.443532 5.8927268 2.7083571
-18.914108 6.558029 2.7233142
-18.352324 7.2432021 2.7475554
-17.788805 7.9313338 2.7679119
-17.193008 8.6146559 2.8153184
-16.592309 9.2847933 2.868622
-16.023878 9.9124732 2.9343477
-15.437817 10.516213 3.0173334
-14.882235 11.095608 3.1038319
-14.309183 11.641862 3.1637119
-13.748205 12.134889 3.2024169
-13.170254 12.638082 3.2358061
-12.595437 13.124436 3.2535029
-11.994325 13.606654 3.2505241
-11.382342 14.092652 3.2434355
-10.771233 14.584287 3.2337792
-10.066505 15.121309 3.2016954
-9.2915033 15.658658 3.1393559
-8.5443211 16.153801 3.0660757
-23.385247 -2.5940814 2.1647247
-23.154995 -1.3171257 2.190157
-22.94574 -0.48149472 2.1978668
-22.712212 0.33930287 2.2134809
-22.419266 1.1193132 2.2417698
-22.056202 1.8442519 2.2555294
-21.675764 2.5305718 2.2510917
-21.285426 3.2109005 2.24905
-20.875606 3.8554504 2.241174
-20.433311 4.5056082 2.2334384
-19.981163 5.1495195 2.2321462
-19.506381 5.8015184 2.242984
-18.972742 6.4856648 2.2535166
-18.410348 7.1719947 2.2737641
-17.83784 7.8678404 2.2893721
-17.256049 8.5680837 2.3186914
-16.653017 9.238982 2.3724177
-16.093157 9.8717077 2.4380986
-15.543034 10.457883 2.5089052
-14.969484 11.044925 2.5823733
-14.388934 11.635323 2.6550172
[...]
POINT_DATA 900
VECTORS normals float
-0.9070481 0.19746475 0.37184865
-0.89647878 0.25008224 0.36576587
-0.88181946 0.31150584 0.35406011
-0.8629292 0.37442804 0.33934766
-0.84180901 0.43338825 0.32176422
-0.83082872 0.4625816 0.30942189
-0.81387329 0.49409932 0.30573865
-0.80351465 0.51189406 0.30385634
-0.78577372 0.54011311 0.30139259
-0.76717681 0.56560521 0.30254006
-0.74866936 0.59650557 0.2892668
-0.72833099 0.62058347 0.2905342
-0.69654415 0.65144533 0.30074113
-0.67599643 0.66953258 0.3078229
-0.6514843 0.68538535 0.32529238
-0.62936936 0.69877949 0.3400021
-0.6085695 0.70730926 0.35966204
-0.59483044 0.71227069 0.37262208
-0.57409559 0.71769869 0.39411019
-0.5531398 0.72363796 0.41277652
-0.5288281 0.73222403 0.42917223
-0.50629931 0.73937964 0.44382288
-0.48067493 0.74650229 0.46009341
-0.45361853 0.75588553 0.47208823
-0.42400698 0.76209211 0.48931963
-0.3938969 0.76464104 0.51006795
-0.37169455 0.76582679 0.5247404
-0.34691657 0.76440566 0.54344538
-0.31546342 0.76281642 0.56444126
-0.27571577 0.76102135 0.58721999
-0.92104299 0.20201999 0.33296807
-0.90907712 0.25764549 0.32741044
-0.89628442 0.31292172 0.31425186
-0.87060398 0.38715433 0.30357903
-0.84763695 0.44646631 0.28666955
-0.8364009 0.47265956 0.27753644
-0.8217081 0.50194451 0.26990277
-0.81302055 0.51823452 0.26538759
-0.79409897 0.54670225 0.26556257
-0.77786512 0.56880362 0.26718589
-0.75406355 0.60398009 0.25806242
-0.7352898 0.62797135 0.25495274
-0.71335005 0.64958632 0.2630006
-0.69166082 0.6679469 0.27468571
-0.66926642 0.68450875 0.28901596
-0.64752409 0.6979197 0.30597491
-0.62928401 0.70583645 0.32526379
-0.61181193 0.71230247 0.34396416
-0.59342939 0.720512 0.35875343
-0.57212036 0.73023249 0.37341505
-0.54741329 0.73736667 0.39576392
-0.52295149 0.74622779 0.41190512
-0.5004363 0.75149451 0.42990639
-0.46953489 0.7608862 0.44787183
-0.43952099 0.76732625 0.46693867
-0.41455608 0.76972478 0.48545548
-0.38888058 0.76996836 0.50588597
-0.36062719 0.76922159 0.52749044
-0.33807443 0.77166936 0.53873191
-0.29823731 0.77173075 0.56168155
-0.93725867 0.20486801 0.28209092
-0.92501433 0.25501669 0.28162915
-0.90460504 0.32381084 0.27719356
-0.879083 0.39250957 0.2704613
-0.85379022 0.45589576 0.25139874
-0.84186599 0.48091937 0.24490451
-0.83214753 0.50243314 0.23471563
-0.82235676 0.52170468 0.22705413
-0.80633262 0.54735136 0.22412987
-0.78903686 0.57105339 0.22653668
-0.76610878 0.60456248 0.21813194
-0.74378334 0.6319332 0.21782279
-0.72500947 0.64988923 0.22804663
-0.71159838 0.66174891 0.23604263
-0.68439654 0.6811097 0.26017484
-0.66688063 0.6924645 0.27525105
-0.64932647 0.70205403 0.29239574
-0.62677306 0.71189601 0.31679584
-0.61088663 0.71912461 0.33117566
-0.5927022 0.72853537 0.3434244
-0.57338215 0.73669321 0.35849132
-0.55413405 0.74258938 0.37616017
-0.52656806 0.75210224 0.39631843
-0.49149224 0.76322415 0.41943327
-0.46260447 0.76843803 0.44215393
-0.4347925 0.76969676 0.46746378
-0.4105331 0.77269845 0.4841484
-0.38767365 0.77478877 0.49941115
-0.36536424 0.77414662 0.5169197
-0.32405828 0.77484458 0.54277261
-0.949449 0.20319694 0.23928559
-0.9357126 0.25529305 0.24344895
-0.9126329 0.32858563 0.2431721
-0.88924408 0.40035012 0.22127978
-0.8605865 0.46524833 0.20720731
-0.8470815 0.48875089 0.20874747
-0.83668341 0.5131574 0.19139059
-0.82794452 0.53040994 0.18213505
-0.81769202 0.54808261 0.17602617
-0.80282053 0.57000615 0.17484903
-0.77953876 0.60336492 0.16813715
-0.75800321 0.63012058 0.16846125
-0.74141278 0.6454979 0.18341088
-0.72325716 0.66105992 0.19974699
-0.70673045 0.67429467 0.21414661
-0.68646386 0.68595136 0.24132571
-0.66395508 0.70054165 0.26154359
-0.64501036 0.70958046 0.28364979
-0.62652199 0.72028417 0.29775981
-0.61106185 0.72854722 0.30955189
-0.59407036 0.73601187 0.32460274
-0.57665074 0.74204381 0.34182583
-0.55307232 0.75273833 0.35706585
-0.52363882 0.76242728 0.38014081
-0.49289427 0.76669291 0.41138452
-0.46299492 0.77213044 0.43525887
-0.43460499 0.77393461 0.46059061
-0.40914249 0.77680273 0.47872743
-0.39043353 0.77840437 0.49157734
-0.35511099 0.78001245 0.51524437
-0.96261279 0.20053368 0.18210671
-0.94777443 0.25192798 0.19559123
-0.92500784 0.33054604 0.18734945
-0.89579747 0.40795116 0.17641638
-0.87228544 0.46331499 0.1563884
-0.85432662 0.49827006 0.14782751
-0.84010477 0.52292228 0.14413973
-0.83177141 0.53717564 0.13999517
-0.82538899 0.54793111 0.13603132
-0.80794136 0.5758477 0.12502071
-0.78589879 0.60721558 0.1168432
-0.76786849 0.63006281 0.11575333
-0.75578751 0.64169689 0.13042367
-0.73757173 0.65649063 0.15813916
-0.72473478 0.66776168 0.16986416
-0.7097941 0.67990103 0.18419263
-0.68993892 0.691506 0.21401808
-0.6696249 0.7028424 0.24003138
-0.64504986 0.71732706 0.26334875
-0.62408032 0.72970935 0.27937075
-0.60668063 0.73730534 0.29718589
-0.59323788 0.74158081 0.31325185
-0.57473623 0.75108942 0.32487376
-0.55547269 0.75891211 0.33985659
-0.52254842 0.76696202 0.37244114
-0.48699333 0.77525919 0.40225699
-0.45987425 0.7787646 0.42666306
-0.43186881 0.781273 0.45066821
-0.41106394 0.78237688 0.46788125
-0.38079697 0.78415017 0.49000222
-0.97377779 0.19476893 0.11756647
-0.95979193 0.24943105 0.1287773
-0.93503983 0.33051023 0.12831015
-0.90625884 0.4036896 0.12541777
-0.87944614 0.46319123 0.10967391
-0.85871188 0.5010832 0.10737567
-0.84284192 0.52793388 0.10441895
-0.83463781 0.5418868 0.098683456
-0.82748321 0.55392144 0.091883452
-0.81033665 0.57985857 0.084371496
-0.78946182 0.60892102 0.077234866
-0.7751608 0.62718373 0.075936209
-0.7627722 0.64058137 0.088510318
-0.74981869 0.65209351 0.11200886
-0.73617449 0.66356196 0.13316396
-0.72133188 0.67631327 0.14926717
-0.70256667 0.68914846 0.17741049
-0.68381752 0.70077163 0.2032553
-0.66108712 0.71506316 0.22726305
-0.63957444 0.72833582 0.24590946
-0.61974041 0.73807266 0.26677813
-0.60571782 0.74355946 0.28324063
-0.59464188 0.74699742 0.29731447
-0.57306353 0.7560012 0.31632321
-0.5462982 0.76702251 0.33650372
-0.51391327 0.77680734 0.36395536
-0.4803337 0.781862 0.3974561
-0.44930008 0.78817048 0.4206147
-0.42634672 0.7875143 0.44502775
-0.39939653 0.79037514 0.46453154
-0.98102562 0.18767124 0.048664531
-0.96741965 0.2427171 0.072025152
-0.94068099 0.32856683 0.084635221
-0.91738884 0.39089347 0.074833255
-0.8894393 0.45054184 0.076875134
-0.865636 0.49536563 0.072713258
-0.84626808 0.52797005 0.071259811
-0.83491562 0.54629662 0.066902177
-0.82535155 0.56101161 0.063724304
-0.81123247 0.58232617 0.052897201
-0.79286176 0.60721464 0.051581057
-0.77977964 0.62385995 0.052368646
-0.76910772 0.63666525 0.055952485
-0.76100509 0.64462444 0.073010873
-0.75142243 0.65289561 0.095350163
-0.73696768 0.66589487 0.11602868
-0.71607267 0.68309843 0.14358433
-0.69729647 0.69575134 0.17235922
-0.67559183 0.70994672 0.19887518
-0.6521818 0.72612089 0.21773231
-0.6331548 0.73811268 0.23303364
-0.62099862 0.74309534 0.24933919
-0.60584236 0.74743912 0.27256154
-0.5877896 0.75551201 0.28931815
-0.56284946 0.76588973 0.31082698
-0.53363775 0.77540825 0.33759857
-0.49800034 0.78497819 0.36851717
-0.46866707 0.78806586 0.39912827
-0.44903145 0.78945794 0.41848168
-0.41371459 0.79574573 0.44229964
-0.98226982 0.18724706 -0.0091945705
-0.97286467 0.2311272 0.010703143
-0.94778186 0.31702557 0.03470362
-0.92757331 0.37195169 0.035492301
-0.8964499 0.44118822 0.041599694
-0.87202717 0.48743914 0.0444038
-0.85322236 0.51957908 0.045267949
-0.83759596 0.54410251 0.048841242
-0.82603154 0.56200085 0.042742731
-0.80975346 0.58568391 0.035688766
-0.79611095 0.60426402 0.032746727
-0.78352057 0.62045176 0.033691728
-0.77372742 0.63228044 0.039589373
-0.76665503 0.63954207 0.056797856
-0.75986957 0.64652803 0.067821392
-0.74527925 0.66096291 0.087674799
-0.72715883 0.67739175 0.1112675
-0.71227168 0.68868721 0.1355691
-0.69291535 0.7026804 0.16158146
-0.66938114 0.71799166 0.19083203
-0.64927573 0.73146495 0.2083268
-0.63288429 0.73965783 0.22883129
-0.61650984 0.74880787 0.24331543
-0.59940281 0.7548066 0.26642685
-0.58351361 0.76216506 0.28038596
-0.55585197 0.77346837 0.30459032
-0.52370224 0.78408567 0.33308501
-0.48532531 0.79068407 0.37319974
-0.46247285 0.79008218 0.40235432
-0.43017234 0.79950992 0.41920835
-0.980949 0.17770641 -0.078482463
-0.97380338 0.22339347 -0.042453877
-0.95281921 0.30243081 -0.025906747
-0.93342705 0.35871347 -0.0062120067
-0.90413532 0.42724609 -0.00032009176
-0.87777804 0.47897584 0.0093734714
-0.86084189 0.50860093 0.016623259
-0.84223178 0.53862105 0.023086854
-0.8268214 0.56190854 0.025003411
-0.8122761 0.58285821 0.021996603
-0.79990477 0.5998428 0.018465595
-0.78587805 0.61800559 0.021558616
-0.7766561 0.62928867 0.028303225
-0.77118506 0.63548181 0.037900779
-0.76543568 0.64178085 0.047175831
-0.75245423 0.65572761 0.061918748
-0.7379617 0.67047793 0.076628198
-0.72329206 0.68377235 0.096457068
-0.70377068 0.69933743 0.12503592
-0.68238868 0.71636352 0.1454957
-0.66375778 0.72735937 0.17428128
-0.64666132 0.73755597 0.1945259
-0.62961069 0.74458816 0.22176303
-0.61217845 0.75435228 0.2370447
-0.59561909 0.7636826 0.24905177
-0.57813295 0.77234134 0.26315613
-0.55254529 0.78068332 0.29193708
-0.51040315 0.79034168 0.33889328
-0.4838009 0.792658 0.37098515
-0.44974209 0.80332321 0.39038939
-0.97544035 0.16865795 -0.14167082
-0.97119351 0.21144404 -0.10988442
-0.95676058 0.27774595 -0.08640826
-0.93763344 0.3430581 -0.056166475
-0.91271046 0.40610833 -0.045118174
-0.88250866 0.4694446 -0.028288361
-0.86566924 0.50045948 -0.012533111
-0.84774317 0.53040314 -0.0020078898
-0.82972846 0.55815803 0.0032097994
-0.81329327 0.58182858 0.0054369334
-0.80184881 0.59749195 0.0064695686
-0.7907942 0.61200325 0.0098266631
-0.78126667 0.6239609 0.017180926
-0.77272751 0.63433051 0.02273759
-0.76720701 0.64078984 0.027960509
-0.75840796 0.65059026 0.039365913
-0.74384128 0.66636751 0.051521783
-0.73162156 0.67831635 0.067947194
-0.71775817 0.69091153 0.08639714
-0.69817574 0.70783209 0.10735164
-0.67760207 0.72235639 0.13804594
-0.66177164 0.73344034 0.15531765
-0.64335502 0.74335313 0.18308587
-0.62370735 0.75418272 0.20542047
-0.6099926 0.76177708 0.21818501
-0.59155686 0.77129168 0.23488214
-0.57091015 0.7791553 0.25880229
-0.53973542 0.78725545 0.29818542
-0.50829844 0.79530367 0.33034037
-0.47194186 0.80546951 0.35845468
-0.9662937 0.15607171 -0.20473913
-0.96066348 0.21090348 -0.18068039
-0.95000647 0.26200747 -0.16982284
-0.93444599 0.32675529 -0.14156861
-0.91522 0.38617908 -0.11505683
-0.89093004 0.44673728 -0.081666786
-0.8699701 0.48917928 -0.062093941
-0.85491535 0.51722191 -0.040015458
-0.83744665 0.54602421 -0.02325247
-0.8176481 0.57559558 -0.011887109
-0.80393612 0.59465394 -0.0085675124
-0.79504052 0.60653303 -0.0053146324
-0.78352648 0.62134612 0.0039065277
-0.77657717 0.62993357 0.010564416
-0.76961094 0.63828357 0.017120009
-0.7624407 0.64671569 0.021047621
-0.74999667 0.66078556 0.029452348
-0.74058147 0.67070245 0.041198352
-0.72683315 0.68430929 0.058603398
-0.70929605 0.70035724 0.079992786
-0.69121794 0.71521277 0.10338494
-0.67400086 0.72756935 0.12792841
-0.65523617 0.73953918 0.1541018
-0.64092044 0.74667209 0.17804994
-0.62170719 0.75827512 0.19621164
-0.60790135 0.76495058 0.21285337
-0.58830424 0.77484762 0.23132075
-0.56176538 0.78368164 0.2650712
-0.53276081 0.79323682 0.29485805
-0.49563918 0.80505844 0.32591826
-0.95180929 0.14610146 -0.26965429
-0.9482207 0.19338 -0.25195571
-0.94176122 0.24770132 -0.22744199
-0.92932044 0.3042718 -0.20924193
-0.911509 0.36480835 -0.18991105
-0.89461112 0.4166758 -0.16140703
-0.8766226 0.4655118 -0.12178501
-0.85843297 0.50204823 -0.10507336
-0.84441134 0.52895483 -0.084712914
-0.82754507 0.55878897 -0.054074456
-0.80889749 0.58687638 -0.035510159
-0.79762676 0.60277778 -0.021224834
-0.78741475 0.61630779 -0.011945975
-0.7789776 0.62702017 -0.0062936426
-0.77273804 0.6347232 -0.0015453542
-0.76554178 0.64336942 0.0046446578
-0.75565371 0.65489304 0.010128155
-0.7449078 0.66678154 0.022688191
-0.73389592 0.67837777 0.034646443
-0.72172103 0.69039206 0.049775157
-0.70596876 0.704549 0.07224131
-0.68972493 0.71686403 0.10190919
-0.67226971 0.729337 0.12696839
-0.65526075 0.74030093 0.15029267
-0.63832754 0.750519 0.17105315
-0.62071191 0.76061332 0.19022117
-0.60091982 0.76989514 0.21484145
-0.58253987 0.77726828 0.23770006
-0.55498914 0.78846181 0.2651698
-0.52521453 0.79832378 0.29466735
-0.9293738 0.13929995 -0.34184773
-0.92721843 0.17702155 -0.33004447
-0.92361943 0.22460086 -0.31061488
-0.91074779 0.27600512 -0.30718013
-0.90086042 0.33299405 -0.27850577
-0.88487119 0.38929994 -0.2558291
-0.87144844 0.43544767 -0.22574972
-0.86119546 0.47077995 -0.1915949
-0.84646463 0.50543143 -0.16744166
-0.83234715 0.53608437 -0.14075429
-0.8162296 0.56817877 -0.10460458
-0.80263236 0.5919451 -0.073364146
-0.7940029 0.60533404 -0.055947181
-0.7844042 0.6191562 -0.036819127
-0.7763778 0.62974036 -0.025779496
-0.76845089 0.63967281 -0.01737601
-0.75990855 0.64997693 -0.0083061017
-0.74877544 0.6628198 0.0022938616
-0.73865996 0.67391467 0.014848248
-0.72979177 0.68312307 0.02732843
-0.71947419 0.69296045 0.046504955
-0.70564833 0.7051579 0.069374102
-0.68720743 0.71939931 0.10104737
-0.67078825 0.73102992 0.12505348
-0.65256643 0.74326589 0.14735287
-0.63220329 0.75514658 0.17341467
-0.61094464 0.76618829 0.19925401
-0.59756074 0.77222708 0.21583907
-0.57700095 0.78248271 0.23407416
-0.5494181 0.79512867 0.25672971
-0.90396709 0.14269188 -0.40309121
-0.90209325 0.16957757 -0.39682644
-0.89675925 0.20294425 -0.39323845
-0.88884434 0.25178358 -0.38283255
-0.87432549 0.30405814 -0.37829033
-0.86786448 0.34877848 -0.3537864
-0.85970046 0.40026741 -0.31733439
-0.85435703 0.43581823 -0.28308398
-0.84369103 0.47260525 -0.25461681
-0.83179615 0.50663516 -0.22679503
-0.82285639 0.5335577 -0.19550841
-0.80910924 0.56762302 -0.15213927
-0.79848333 0.58926787 -0.1232386
-0.79005076 0.60556782 -0.095432711
-0.78072539 0.62162152 -0.063675353
-0.77173047 0.63450645 -0.042821083
-0.76313487 0.64555835 -0.029657794
-0.75301759 0.65770675 -0.019655342
-0.74394958 0.66818378 -0.0083346385
-0.73517533 0.67784192 0.0068969995
-0.72756949 0.68571485 0.020923416
-0.7158824 0.6968791 0.043265685
-0.70318434 0.70788557 0.066556869
-0.68575086 0.72138125 0.096720514
-0.66572963 0.73495478 0.12901755
-0.64530591 0.7484374 0.15304163
-0.62894436 0.75756499 0.174712
-0.61303846 0.76609934 0.19306904
-0.59379528 0.77720407 0.20823305
-0.56941934 0.78962971 0.228575
-0.86949116 0.14292133 -0.47281986
-0.86954637 0.15960377 -0.46734971
-0.86079692 0.18569252 -0.47386385
-0.85833271 0.21967487 -0.46368945
-0.85280629 0.26972208 -0.44718166
-0.84918147 0.31211307 -0.42600031
-0.84481243 0.3557676 -0.39965155
-0.84281772 0.39377004 -0.36688342
-0.8357433 0.43113953 -0.34007623
-0.82637221 0.46822335 -0.31285119
-0.82207295 0.49583912 -0.27989218
-0.81134649 0.53426321 -0.23723341
-0.80229842 0.56388433 -0.1958359
-0.79815535 0.5832429 -0.1509164
-0.78844587 0.60295152 -0.12166586
-0.78071685 0.61768359 -0.094594844
-0.76971122 0.63477792 -0.067835352
-0.75881369 0.64958549 -0.047333659
-0.74851342 0.66246365 -0.029488612
-0.73975185 0.67275457 -0.012980594
-0.73443026 0.67868408 0.00035096711
-0.7246316 0.68875823 0.022828586
-0.71323698 0.6996891 0.041571339
-0.70016263 0.71060678 0.069356323
-0.68288922 0.72411768 0.096518857
-0.66410353 0.73752997 0.12253995
-0.64576489 0.74880004 0.14928561
-0.62930598 0.7590127 0.16695419
-0.60739441 0.7709612 0.19154859
-0.58111108 0.78713767 0.20669836
-0.84890969 0.13530262 -0.51092617
-0.84619294 0.15082555 -0.51108625
-0.8448386 0.17237592 -0.50649213
-0.84568138 0.20262856 -0.4937253
-0.84222338 0.24338184 -0.48106659
-0.8366637 0.28975676 -0.46479551
-0.83340439 0.32985239 -0.44343492
-0.83158166 0.36210303 -0.4211334
-0.8306246 0.39345593 -0.39402437
-0.82617099 0.42513377 -0.36973337
-0.82043018 0.45297289 -0.34886945
-0.81528273 0.48470006 -0.3168279
-0.80910367 0.52532969 -0.26340076
-0.80203301 0.5548522 -0.22109295
-0.79295524 0.5825632 -0.17844358
-0.78612054 0.60049457 -0.14635838
-0.77680977 0.61942997 -0.11345962
-0.76467447 0.63878552 -0.08500599
-0.75484521 0.6529072 -0.062617068
-0.74642549 0.6641726 -0.04151811
-0.74070841 0.6714097 -0.023665707
-0.73436566 0.67875255 -0.0014328515
-0.72512199 0.68838909 0.017848193
-0.71351796 0.6995407 0.039178143
-0.69733997 0.71389401 0.063814676
-0.68139117 0.72679334 0.08647256
-0.66207536 0.74105045 0.11180543
-0.6444476 0.75212005 0.13785039
-0.6216833 0.76562118 0.16533025
-0.60036097 0.77837259 0.18358326
-0.83149009 0.11549888 -0.54340062
-0.83496377 0.13695468 -0.53299055
-0.83753896 0.15548775 -0.52378627
-0.84076952 0.18094482 -0.51026032
-0.84256727 0.22413544 -0.48973841
-0.83892269 0.26844007 -0.4734434
-0.83355714 0.30512573 -0.4605223
-0.83355696 0.33357367 -0.44035373
-0.8303695 0.36526315 -0.42079607
-0.82814224 0.39515515 -0.39753344
-0.82692184 0.4182321 -0.37587523
-0.82376843 0.44722689 -0.34841595
-0.81394902 0.48858531 -0.31427915
-0.80949684 0.52205772 -0.26864588
-0.80274037 0.5492544 -0.23222297
-0.79637058 0.57147161 -0.19802549
-0.78834335 0.59354402 -0.16192667
-0.77640278 0.61699411 -0.12851843
-0.76581697 0.6353327 -0.099381751
-0.75672663 0.64958645 -0.073500088
-0.74945137 0.65992282 -0.053146155
-0.74331804 0.66797298 -0.035921995
-0.73715284 0.67543453 -0.019846703
-0.72706583 0.68656616 -0.0014814068
-0.71596114 0.69781878 0.021180138
-0.69839216 0.71415169 0.047283804
-0.68074666 0.72901867 0.071524528
-0.6625448 0.74259451 0.097917233
-0.6435923 0.75499642 0.1255761
-0.62047788 0.77093291 0.1437694
-0.81238601 0.095117731 -0.57530999
-0.8182901 0.11167657 -0.56385252
-0.82666316 0.13133332 -0.5471559
-0.83157959 0.15966069 -0.53196227
-0.83268129 0.19406751 -0.5186325
-0.83346474 0.24229462 -0.49661841
-0.83249539 0.28058155 -0.47772944
-0.83564465 0.30480186 -0.45693966
-0.83550957 0.33002535 -0.43932566
-0.83644937 0.35925932 -0.41386617
-0.83605614 0.3835523 -0.39229805
-0.83244695 0.41258783 -0.36986938
-0.82759879 0.44279897 -0.34497726
-0.82269712 0.48283947 -0.30005914
-0.81237714 0.52009893 -0.26370531
-0.80751586 0.54143675 -0.23401791
-0.80009581 0.56233973 -0.20885573
-0.79109574 0.58739576 -0.17068612
-0.77894803 0.61180972 -0.13758211
-0.767951 0.63057642 -0.11235942
-0.75869141 0.64527496 -0.089485016
-0.75322283 0.65419486 -0.068443057
-0.74764984 0.66210847 -0.051303846
-0.73908179 0.67281093 -0.032917324
-0.72917157 0.68414205 -0.016077494
-0.71338563 0.70073807 0.0068628538
-0.69809943 0.71543859 0.028369245
-0.68034945 0.73105281 0.051830623
-0.66346558 0.74415902 0.077722388
-0.63885828 0.76210663 0.10513602
-0.79323237 0.064614855 -0.60548108
-0.7986255 0.079829968 -0.59651026
-0.80650843 0.1014421 -0.58245485
-0.81120341 0.13385722 -0.56923745
-0.81625054 0.1696877 -0.55221475
-0.82052239 0.20389638 -0.53401243
-0.82377199 0.24270658 -0.51234092
-0.8314198 0.27796955 -0.48111751
-0.83648717 0.30467862 -0.45547793
-0.83700437 0.33208758 -0.43490404
-0.83756858 0.35669117 -0.41382397
-0.8364315 0.38345558 -0.39159182
-0.8307642 0.41449225 -0.37151987
-0.82808474 0.44540451 -0.34042692
-0.82464292 0.47718873 -0.30373503
-0.81504179 0.51013759 -0.27471172
-0.80785029 0.53709327 -0.24271118
-0.80123299 0.55858586 -0.21449366
-0.79125897 0.58307136 -0.18422007
-0.77947135 0.60668924 -0.15605316
-0.76815491 0.62687851 -0.13023582
-0.76102608 0.64018377 -0.10490022
-0.75559973 0.64958942 -0.084277179
-0.74882154 0.65938675 -0.066898547
-0.73967213 0.67127326 -0.047721708
-0.72588413 0.68731072 -0.026385732
-0.7118587 0.70228525 -0.0072531548
-0.69850749 0.71548974 0.012716682
-0.68053588 0.731957 0.033314837
-0.6602521 0.74899869 0.055390656
-0.77401877 0.046864659 -0.63142588
-0.77876507 0.061590736 -0.62428483
-0.78305468 0.077737548 -0.61707556
-0.78994614 0.10322466 -0.60442515
-0.80025987 0.14034077 -0.58299967
-0.80866686 0.17577422 -0.56139231
-0.81273687 0.2076382 -0.54437593
-0.82113678 0.23811359 -0.51868709
-0.82742731 0.26040276 -0.49754843
-0.83439829 0.29430312 -0.46600984
-0.83691867 0.32639764 -0.43935376