# vtk DataFile Version 2.0
Grain example
ASCII
DATASET UNSTRUCTURED_GRID
POINTS 900 float
18.221559 -2.783118 5.0220795
17.74836 -2.8222758 5.7524964
17.218883 -2.8799602 6.4861153
16.626512 -2.9358137 7.2841533
15.978383 -2.9974484 8.0968842
15.335879 -3.0508908 8.9086867
14.637468 -3.0977134 9.7238114
13.972565 -3.0690151 10.552474
13.338737 -3.00194 11.370621
12.775646 -2.8927519 12.106883
12.206349 -2.7681288 12.784859
11.594974 -2.6351137 13.468663
10.978022 -2.4850554 14.149062
10.316401 -2.3755388 14.832095
9.631872 -2.2665256 15.522438
8.9025933 -2.1407955 16.214217
8.1268957 -2.0026242 16.926975
7.312463 -1.8783128 17.632498
6.5425565 -1.7843366 18.308623
5.7592187 -1.7557245 18.99073
4.9603949 -1.7602901 19.646184
4.2132941 -1.7331231 20.216458
3.542295 -1.6560417 20.688371
2.903805 -1.5741168 21.134494
2.1661329 -1.5792396 21.474544
1.4399732 -1.5698963 21.768363
0.69917291 -1.5662481 22.023482
-0.039490534 -1.5209092 22.249404
-0.73682929 -1.4504246 22.416339
-1.4441017 -1.3665064 22.560915
17.762325 -4.0857282 4.9430397
17.313408 -4.16914 5.6885493
16.811713 -4.2338945 6.4845145
16.255759 -4.3062235 7.2797144
15.630788 -4.361243 8.0839057
14.989271 -4.4027254 8.8964432
14.382221 -4.3432384 9.7426445
13.746932 -4.2613614 10.584545
13.169723 -4.1194383 11.382616
12.62175 -3.946071 12.117106
12.087002 -3.7526544 12.820697
11.506478 -3.5674901 13.51669
10.886646 -3.375841 14.22642
10.247909 -3.2140003 14.926126
9.5667524 -3.101373 15.615082
8.8619677 -2.96364 16.300792
8.0706407 -2.8247057 17.039488
7.2738068 -2.6821959 17.756819
6.4423039 -2.5690585 18.478801
5.6351016 -2.5079414 19.179709
4.8420632 -2.4662893 19.834078
4.1190625 -2.4075811 20.401986
3.4544893 -2.3026665 20.904159
2.8130187 -2.2046689 21.375544
2.1317825 -2.1361049 21.744161
1.405895 -2.0819261 22.051805
0.70495895 -2.0061111 22.282598
-0.022445231 -1.9381444 22.503834
-0.71943453 -1.8581227 22.67796
-1.4283036 -1.7698553 22.819774
17.222646 -5.2711101 4.9184173
16.772738 -5.4309196 5.6413774
16.295687 -5.5412796 6.4248705
15.798974 -5.5831313 7.2582864
15.302053 -5.5868895 8.0856625
14.723783 -5.4936253 8.9194598
14.133728 -5.3965097 9.774027
13.574525 -5.2550233 10.603904
13.008331 -5.1086092 11.416739
12.477124 -4.9047072 12.13576
11.953599 -4.7010303 12.843094
11.38556 -4.4999992 13.54942
10.806092 -4.3156509 14.246108
10.183315 -4.1146826 14.971618
9.5232947 -3.9354603 15.681249
8.800457 -3.7820167 16.400513
8.0151649 -3.6289547 17.13579
7.2072496 -3.4705229 17.871601
6.3782575 -3.3334462 18.606654
5.5634743 -3.208545 19.320243
4.7707709 -3.1035662 19.974409
4.0553594 -2.9779283 20.538403
3.4025768 -2.8313963 21.044553
2.7720916 -2.6942905 21.520655
2.1193852 -2.5825043 21.951861
1.4127497 -2.5211978 22.265811
0.68948493 -2.4136268 22.52785
-0.0064958257 -2.3299652 22.734853
-0.69017329 -2.2386939 22.899127
-1.4328401 -2.1471114 23.045374
16.686366 -6.2935666 4.9009729
16.25725 -6.4438756 5.6412695
15.785872 -6.5590095 6.4183954
15.337364 -6.5757197 7.2529512
14.905449 -6.5355239 8.0926011
14.427578 -6.4700426 8.9660676
13.910174 -6.3684453 9.7922152
13.384443 -6.2094938 10.613742
12.850497 -6.012456 11.428099
12.336464 -5.7903505 12.150209
11.817239 -5.5710016 12.858236
11.268481 -5.3471047 13.567288
10.722669 -5.1131574 14.268101
10.139342 -4.8934026 14.978386
9.4784722 -4.692953 15.726173
8.7511019 -4.4969746 16.465014
7.9493884 -4.3359714 17.231089
7.1331171 -4.1829952 17.982247
6.3441517 -4.0274402 18.706066
5.5279282 -3.8632853 19.418149
4.7410216 -3.7052018 20.085127
4.0221673 -3.5387756 20.645927
3.363911 -3.3686531 21.155678
2.7394248 -3.1982085 21.630971
2.0952618 -3.050192 22.106691
1.4086917 -2.9319453 22.416098
0.67821554 -2.8219738 22.673473
-0.017039063 -2.7020668 22.887079
-0.70761524 -2.6222705 23.064486
-1.4414497 -2.5218292 23.21109
16.180701 -7.1802023 4.9164877
15.757115 -7.34057 5.6754297
15.357439 -7.3795914 6.4478892
14.956759 -7.3786208 7.2470808
14.539441 -7.3179254 8.0960081
14.106654 -7.2380552 8.9569284
13.689188 -7.1011632 9.7995749
13.205622 -6.9631973 10.620321
12.705855 -6.7813502 11.418807
12.208811 -6.5468296 12.155046
11.697404 -6.327219 12.866829
11.168566 -6.0875194 13.57362
10.620658 -5.8514769 14.285384
10.038793 -5.6450169 15.011107
9.4319546 -5.4501654 15.743192
8.6848674 -5.2497577 16.518461
7.90827 -5.0388092 17.285666
7.0995 -4.8408219 18.039974
6.3096261 -4.6490102 18.778089
5.5184766 -4.4605264 19.48589
4.7204838 -4.2899637 20.164399
4.0141248 -4.1014283 20.732705
3.3452996 -3.8975602 21.238924
2.7149622 -3.7097 21.714761
2.0716887 -3.5061056 22.16571
1.3955421 -3.3459608 22.540676
0.65986411 -3.2304402 22.792957
-0.060339109 -3.0874322 23.006407
-0.73208065 -2.9685063 23.186739
-1.451319 -2.8472888 23.308465
15.724304 -7.9215937 4.9359013
15.381351 -7.9995451 5.7087559
15.001979 -8.0420511 6.4815139
14.606691 -8.0521075 7.2713665
14.207416 -8.000489 8.093651
13.840001 -7.8849115 8.9253961
13.448556 -7.7489902 9.7870479
13.001292 -7.6140544 10.621487
12.523069 -7.443857 11.399068
12.062951 -7.2515289 12.13588
11.590376 -7.0367244 12.867667
11.067558 -6.8143524 13.579632
10.49953 -6.5933176 14.310208
9.9338928 -6.3551253 15.04039
9.3406169 -6.1456161 15.773787
8.6261266 -5.9270725 16.539966
7.8639801 -5.708176 17.317817
7.077149 -5.4829214 18.079135
6.2852575 -5.2894561 18.818337
5.4930603 -5.0774324 19.537625
4.7148814 -4.8718297 20.215728
4.0230394 -4.6600374 20.780677
3.3297799 -4.4142802 21.289817
2.6745758 -4.1937915 21.766888
2.0319018 -3.949595 22.211058
1.380618 -3.7411504 22.621807
0.64778157 -3.6028026 22.865141
-0.072530872 -3.444789 23.094415
-0.75237622 -3.2969155 23.280287
-1.4616446 -3.1657189 23.41377
15.353756 -8.534129 4.9620892
15.022825 -8.6150404 5.7422431
14.65833 -8.6693774 6.5163981
14.27047 -8.6732647 7.2901163
13.91628 -8.6337642 8.0721821
13.573379 -8.5123954 8.9021044
13.188116 -8.3753886 9.7549853
12.788698 -8.2329293 10.621063
12.331687 -8.0613063 11.380151
11.884149 -7.8664375 12.113538
11.437412 -7.6721821 12.847599
10.947777 -7.4623074 13.593019
10.391557 -7.2444702 14.320264
9.815893 -7.0357599 15.06789
9.2377615 -6.8187472 15.81478
8.5665527 -6.5975508 16.556541
7.8020365 -6.3669268 17.342077
7.0451854 -6.1309074 18.096353
6.2576451 -5.8899097 18.838834
5.4584238 -5.6629126 19.55352
4.7165841 -5.4170377 20.214348
4.0298392 -5.139961 20.763551
3.3226586 -4.8793378 21.287405
2.6465622 -4.6265686 21.756496
1.9841242 -4.3757465 22.210553
1.3427647 -4.1443553 22.638496
0.64298378 -3.973362 22.928772
-0.069250978 -3.8188411 23.152293
-0.75801092 -3.6476517 23.345854
-1.4690461 -3.4942793 23.50243
14.972668 -9.1377299 5.0016869
14.652486 -9.2214861 5.7657727
14.318326 -9.27449 6.5430099
13.949862 -9.2686661 7.3105923
13.638548 -9.2324798 8.0700359
13.295771 -9.1372841 8.8835367
12.923628 -9.0047232 9.7279197
12.546578 -8.848792 10.581956
12.162014 -8.6391301 11.354016
11.71835 -8.4344061 12.093359
11.265224 -8.2347198 12.83597
10.79856 -8.0367858 13.582592
10.275505 -7.8319681 14.329343
9.6955371 -7.6198148 15.077084
9.1158635 -7.401817 15.817536
8.4823051 -7.1821471 16.557378
7.7452901 -6.9709182 17.327057
6.9812311 -6.741341 18.094863
6.2151691 -6.4894227 18.823183
5.4302981 -6.2288067 19.552415
4.7089824 -5.9311838 20.165911
4.02072 -5.6427094 20.731877
3.3060632 -5.3569612 21.257643
2.625528 -5.0653372 21.735266
1.946348 -4.7928005 22.199532
1.2966231 -4.549882 22.629446
0.64108138 -4.3293793 22.975901
-0.066265925 -4.1680931 23.18743
-0.75263362 -4.0049874 23.385843
-1.4779411 -3.8366187 23.573918
14.606853 -9.7155273 5.0371472
14.286537 -9.7996097 5.7899718
13.960074 -9.8647626 6.5765345
13.661974 -9.8524909 7.3193457
13.355543 -9.8077584 8.0716594
13.037913 -9.7150094 8.8476867
12.695352 -9.5492852 9.680342
12.340289 -9.3670877 10.516345
11.985148 -9.1490401 11.290674
11.554575 -8.9472376 12.060516
11.100015 -8.7462378 12.807491
10.635264 -8.5530029 13.554357
10.115695 -8.3597224 14.321538
9.5722466 -8.1701174 15.076071
8.9716651 -7.9606377 15.822343
8.3417993 -7.7405636 16.566668
7.6633458 -7.5197188 17.314215
6.9083988 -7.294642 18.071561
6.1464184 -7.0488696 18.807529
5.3712943 -6.7814887 19.501658
4.680769 -6.4674709 20.105959
3.9909981 -6.1613554 20.685862
3.3145771 -5.8408322 21.214801
2.6110819 -5.5305429 21.700936
1.9360969 -5.2326617 22.167127
1.2656904 -4.9487378 22.613562
0.63173504 -4.7028577 22.993231
-0.060453377 -4.5038832 23.21786
-0.75002295 -4.337543 23.413221
-1.4755309 -4.169411 23.601303
14.234587 -10.27545 5.072645
13.925776 -10.350024 5.8155155
13.648192 -10.366404 6.5701447
13.396976 -10.341123 7.3019294
13.114013 -10.283762 8.0431305
12.808112 -10.210234 8.8110022
12.482767 -10.055864 9.6233105
12.127998 -9.8776602 10.444257
11.771232 -9.6739947 11.224304
11.381492 -9.4624213 12.021291
10.92325 -9.2675464 12.780563
10.441028 -9.0851779 13.543552
9.9211804 -8.8916577 14.311194
9.3961262 -8.7001305 15.084249
8.8199756 -8.5102575 15.828128
8.1937049 -8.2866465 16.573692
7.5516368 -8.059945 17.319598
6.8128318 -7.8392554 18.05007
6.0540293 -7.5907385 18.758009
5.299478 -7.2832917 19.432814
4.6212059 -6.9726275 20.039037
3.9670346 -6.6506767 20.612383
3.3072248 -6.3239145 21.152394
2.6146937 -6.009095 21.65325
1.9280743 -5.693842 22.122812
1.2632743 -5.3950318 22.576614
0.62089736 -5.0890591 22.958878
-0.055399767 -4.8543679 23.243239
-0.74479931 -4.6654589 23.439789
-1.4702262 -4.4876607 23.612182
13.880921 -10.775042 5.0786496
13.60454 -10.831567 5.8067158
13.368877 -10.825098 6.5377263
13.130412 -10.79687 7.2801622
12.86444 -10.756512 8.0148107
12.582321 -10.683312 8.7719303
12.25309 -10.57726 9.5702031
11.898149 -10.402265 10.386848
11.54041 -10.201193 11.161918
11.149227 -9.9945504 11.966097
10.726607 -9.8010035 12.769146
10.245429 -9.6193798 13.534407
9.7272557 -9.4273047 14.299281
9.2019223 -9.2355375 15.072799
8.6284128 -9.0310802 15.837246
8.0246037 -8.8413139 16.582709
7.3821956 -8.6179073 17.318598
6.6894112 -8.3711505 18.028855
5.9676157 -8.1029136 18.695143
5.2466878 -7.7931473 19.343024
[...]
POINT_DATA 900
VECTORS normals float
0.82109303 -0.27531519 0.50000778
0.81043082 -0.25984436 0.52505504
0.80305447 -0.23271075 0.5485884
0.79476761 -0.20380252 0.57167208
0.78373002 -0.17615021 0.59559916
0.77847508 -0.15191033 0.60901544
0.7724663 -0.12701395 0.62222445
0.77149565 -0.10219906 0.62797278
0.77462398 -0.080020887 0.6273391
0.77317352 -0.063804598 0.63097677
0.7636595 -0.047977284 0.6438341
0.75231949 -0.031602091 0.65804004
0.7385649 -0.015349561 0.67400762
0.71965122 0.012578885 0.69422178
0.70111983 0.03252653 0.71230121
0.68042948 0.062522232 0.73014155
0.6646877 0.087677964 0.74195878
0.65296128 0.11785784 0.74816515
0.6379539 0.16183913 0.75287643
0.62639117 0.18559971 0.75709105
0.60000289 0.21445232 0.77071833
0.57770539 0.244332 0.77881856
0.54327829 0.28421544 0.78998119
0.509316 0.30815263 0.80351675
0.45164142 0.36939827 0.81213604
0.39540584 0.40864707 0.82259455
0.33194863 0.43903607 0.83489965
0.25830167 0.47967362 0.83856632
0.19630505 0.50812283 0.83861524
0.082948171 0.5292554 0.8443982
0.8222016 -0.31605315 0.47338667
0.81720377 -0.30516274 0.48893119
0.81210081 -0.28332452 0.51011714
0.80694904 -0.25444794 0.53300046
0.80164364 -0.22462968 0.55399366
0.79488474 -0.19078507 0.57598551
0.79327923 -0.15372838 0.58913127
0.79163559 -0.12204806 0.59867968
0.787547 -0.094475242 0.60896974
0.78086574 -0.07606771 0.62005032
0.77069343 -0.061321508 0.63424862
0.75900038 -0.049398233 0.64921356
0.74427472 -0.03299562 0.66705805
0.72818354 -0.0088373698 0.6853252
0.70946355 0.011188596 0.70465331
0.69168511 0.035123393 0.72134462
0.67529179 0.060518915 0.73506357
0.66405353 0.084174917 0.74293169
0.65157879 0.1128506 0.75013987
0.63788889 0.13199666 0.75873226
0.62026306 0.1476113 0.77037954
0.59450074 0.1811527 0.78342362
0.56680589 0.21555952 0.79515104
0.53171326 0.2436438 0.81112188
0.48412406 0.29548344 0.82359786
0.41355679 0.34707073 0.84173196
0.35081117 0.38299818 0.8545431
0.27710848 0.43012511 0.85918757
0.19876591 0.46111441 0.86479224
0.072657184 0.47930197 0.87463739
0.82015078 -0.38131907 0.42655418
0.81992486 -0.3605096 0.4446977
0.81811117 -0.34284423 0.46168381
0.81330357 -0.31558624 0.48881759
0.81498941 -0.27680393 0.50908924
0.8127441 -0.23088067 0.53492162
0.80912453 -0.18511716 0.55771779
0.80383514 -0.14560076 0.57675774
0.79602742 -0.11653356 0.59393625
0.78466241 -0.094980163 0.61260401
0.77338809 -0.085699956 0.62811335
0.76261692 -0.072156888 0.6428132
0.75320888 -0.059459339 0.65508852
0.7399822 -0.03701598 0.67160715
0.71702739 -0.0084016202 0.69699435
0.69996004 0.013103856 0.71406179
0.68140489 0.036710372 0.73098545
0.67188483 0.049523989 0.73899807
0.66219472 0.06876975 0.74616947
0.64736578 0.079762818 0.75799435
0.63040095 0.096273055 0.77027666
0.61340946 0.11888272 0.78076612
0.5876726 0.15125866 0.7948344
0.54708807 0.20058557 0.81268694
0.49329881 0.25088742 0.83289362
0.42695769 0.2879128 0.85721255
0.3600617 0.32760884 0.87351475
0.28924828 0.3851114 0.87637015
0.22022316 0.41275801 0.88381706
0.086714872 0.44190683 0.89285994
0.81182083 -0.43397307 0.39065883
0.81154471 -0.41796046 0.4082943
0.81260732 -0.39921592 0.42461276
0.81515854 -0.36125103 0.45278498
0.81912469 -0.32763523 0.47083957
0.82059022 -0.28660348 0.49445944
0.8194183 -0.24088147 0.52012475
0.81345763 -0.19798365 0.54689045
0.80156104 -0.16513328 0.57465721
0.78899157 -0.13184223 0.60009159
0.77576322 -0.10848097 0.62162955
0.7646635 -0.093781217 0.63756946
0.75884961 -0.077213044 0.64667258
0.74955509 -0.063545019 0.65888482
0.72674963 -0.032500513 0.68613314
0.70587581 -0.0062614045 0.70830794
0.68676712 0.012577312 0.72676869
0.67500816 0.027686965 0.7372906
0.66390808 0.03687548 0.74690445
0.65391157 0.042615037 0.75536985
0.63804949 0.054263415 0.76808094
0.62241292 0.07359994 0.7792209
0.60176078 0.098679553 0.79255682
0.56204382 0.14369303 0.81452996
0.50676946 0.18884725 0.84114293
0.44195494 0.22393309 0.86863675
0.37305959 0.27402197 0.88641892
0.3048237 0.31138803 0.90006667
0.21843864 0.3486991 0.91142389
0.099604308 0.38670964 0.91680676
0.80367635 -0.47769342 0.35484268
0.80493278 -0.45734938 0.37804068
0.8090608 -0.43189161 0.39861041
0.81563681 -0.39596325 0.42184084
0.82032958 -0.36211135 0.44264516
0.82285545 -0.32693227 0.46478404
0.82038864 -0.28974306 0.4929619
0.81451728 -0.24460497 0.52605133
0.80472879 -0.21021576 0.55517646
0.79126635 -0.17130244 0.5869864
0.77716944 -0.14414937 0.61255908
0.76759875 -0.12208579 0.62919569
0.76225949 -0.10277919 0.63905939
0.75268508 -0.085998087 0.65273999
0.73441739 -0.064051109 0.67566897
0.71186323 -0.03944254 0.70120969
0.69047557 -0.015925186 0.72318039
0.67707785 0.0015289533 0.73590981
0.66280683 0.013233716 0.74867348
0.6517311 0.017225129 0.75825449
0.63937919 0.018593046 0.76866673
0.62315912 0.031261688 0.78147004
0.60299298 0.054282622 0.79589752
0.57264775 0.072668988 0.81657441
0.52208592 0.11686161 0.84484889
0.45596558 0.16031798 0.87543905
0.38241171 0.20499129 0.90096607
0.31217898 0.23642795 0.92013375
0.22752378 0.27660962 0.93365949
0.11524225 0.33230328 0.93610563
0.79844626 -0.49684926 0.34003586
0.8017365 -0.47722368 0.35982794
0.80774377 -0.45258132 0.37778321
0.81291176 -0.4250525 0.39812666
0.81882354 -0.39461248 0.41690406
0.81998811 -0.36342912 0.44219767
0.81627882 -0.32562757 0.47713265
0.8109573 -0.28963026 0.50839214
0.80382439 -0.2570017 0.53648529
0.7925018 -0.22292602 0.56766618
0.77940615 -0.18586367 0.59831493
0.77002056 -0.16191515 0.61713194
0.7637146 -0.13401638 0.63149
0.7535187 -0.11691989 0.64694614
0.73647972 -0.09485536 0.66977614
0.71570589 -0.073421238 0.69453178
0.69569152 -0.049454371 0.71663629
0.67720165 -0.032427867 0.73508255
0.6622785 -0.016284416 0.74908078
0.64549829 -0.01093406 0.76368345
0.63574097 -0.012705444 0.77179789
0.62247017 -0.0076239566 0.78260639
0.60220362 0.0030057968 0.79833687
0.57635276 0.0087601841 0.81715406
0.52737904 0.056083755 0.84777707
0.46242429 0.10730988 0.8801411
0.39680961 0.13678357 0.90765213
0.32065074 0.17328595 0.93121162
0.25520829 0.21240062 0.9432681
0.13388308 0.26785316 0.95411216
0.80033717 -0.50489519 0.32332842
0.80211083 -0.48802914 0.34415952
0.80850964 -0.46543978 0.36010829
0.81399778 -0.43859731 0.38084118
0.8194137 -0.41467854 0.39573084
0.81900818 -0.387397 0.42326016
0.81492684 -0.35633131 0.45708013
0.80723077 -0.32721844 0.49122966
0.80163669 -0.29715801 0.51872511
0.7914312 -0.26782122 0.54946196
0.78038604 -0.2379812 0.57824093
0.76774084 -0.20354201 0.60757275
0.76114761 -0.17234812 0.6252603
0.7522125 -0.15489837 0.64045519
0.73660281 -0.13201024 0.66331712
0.71755714 -0.11102151 0.68759434
0.69653232 -0.08434242 0.71255111
0.6751096 -0.064983174 0.73484979
0.65735164 -0.046842355 0.75212673
0.64095408 -0.039084674 0.7665835
0.63040529 -0.034849473 0.77548352
0.61722222 -0.035506928 0.78598727
0.59977926 -0.026000337 0.79974297
0.57780652 -0.023922956 0.81582309
0.53359425 -0.0042171308 0.84573009
0.47062978 0.042881632 0.88128813
0.38726749 0.085776302 0.91796858
0.3248643 0.11312389 0.9389708
0.25090069 0.13988816 0.95785184
0.15253357 0.19040215 0.96978375
0.79897683 -0.51624909 0.30842002
0.8057691 -0.49923651 0.31858918
0.81236835 -0.47611764 0.3367041
0.81614698 -0.44928616 0.36338143
0.8188263 -0.42798863 0.38255616
0.81845239 -0.40625708 0.40631376
0.81246375 -0.38240934 0.44007471
0.80677914 -0.35010881 0.47595297
0.79957899 -0.32574167 0.50454515
0.78998424 -0.30160796 0.53381415
0.77852001 -0.27373549 0.56477914
0.76633297 -0.24517637 0.59382011
0.75748432 -0.21847914 0.61521083
0.74851037 -0.19705476 0.63316795
0.73684489 -0.1733514 0.65345918
0.71700871 -0.14790911 0.68119117
0.69598469 -0.11537995 0.70872617
0.67293732 -0.10267006 0.73253957
0.65401909 -0.087947534 0.7513483
0.64109233 -0.070759631 0.76419481
0.6262171 -0.064541959 0.77697264
0.60952402 -0.064417881 0.79014607
0.59320328 -0.056913674 0.80303842
0.57245702 -0.055304475 0.81806746
0.53283946 -0.041194016 0.84521309
0.47212045 -0.012940699 0.88143906
0.39698634 0.02026769 0.91760071
0.33222381 0.055089973 0.94159038
0.25680561 0.079365494 0.96319884
0.16937528 0.12002534 0.97821569
0.79873834 -0.52798971 0.28852025
0.80322181 -0.51657901 0.29661565
0.81252104 -0.48812299 0.31866204
0.81852489 -0.45961773 0.34462812
0.81944745 -0.43816406 0.3694836
0.81665597 -0.42025285 0.39555097
0.81428552 -0.39871802 0.42185666
0.80545575 -0.3700227 0.46295165
0.79827775 -0.34671532 0.49248464
0.78879866 -0.32314048 0.52285458
0.7765321 -0.29970416 0.55423399
0.7657831 -0.27366963 0.58196321
0.75367541 -0.25136379 0.60728051
0.74424215 -0.23393338 0.62560274
0.72994749 -0.21160296 0.64992373
0.71347223 -0.18684352 0.67531243
0.6877542 -0.16551831 0.70682236
0.6628337 -0.14055774 0.73545565
0.64662998 -0.13031199 0.75159062
0.63552123 -0.11399343 0.76362181
0.61637765 -0.10536932 0.78036908
0.60191256 -0.095754106 0.79280037
0.585081 -0.086890859 0.80630652
0.56442186 -0.079046803 0.82169311
0.53107675 -0.07622576 0.8438881
0.47732687 -0.052754608 0.87714082
0.40209081 -0.01210231 0.91551981
0.33223777 0.014867767 0.94307848
0.25772942 0.044676102 0.96518371
0.18174818 0.060870471 0.98145931
0.79887729 -0.53797274 0.26903608
0.80675264 -0.52276213 0.27544499
0.8134347 -0.49905596 0.29877606
0.81731909 -0.47416372 0.32735039
0.81734654 -0.45180374 0.35751646
0.81739424 -0.43428666 0.37849935
0.81191246 -0.41513075 0.41044443
0.80661095 -0.38725903 0.44655259
0.79453161 -0.36886973 0.48234287
0.78573007 -0.34663256 0.51232229
0.77560484 -0.3198015 0.54420965
0.75892738 -0.3007366 0.57756967
0.7473943 -0.28302284 0.60108222
0.74034623 -0.26165635 0.61921193
0.72524624 -0.24517524 0.64335604
0.70595105 -0.22477027 0.6716483
0.68052461 -0.20900854 0.7022832
0.653507 -0.19254736 0.73202057
0.63462047 -0.16763304 0.7544243
0.62391981 -0.15927744 0.76508481
0.60514876 -0.15044002 0.78176901
0.59337757 -0.13142498 0.79412249
0.57740105 -0.11795695 0.80789491
0.55818682 -0.10407581 0.82316201
0.52559043 -0.10690795 0.84399372
0.48036841 -0.094510701 0.87195981
0.40746172 -0.057762677 0.91139367
0.3302278 -0.02486234 0.94357377
0.25557803 -0.003059846 0.96678359
0.17855652 0.019304416 0.98374026
0.79951999 -0.54584315 0.25064524
0.80812055 -0.52878962 0.25946622
0.81219936 -0.51177378 0.28003535
0.81550543 -0.48763576 0.31170862
0.81587681 -0.46615268 0.3421209
0.81546276 -0.44778358 0.36675651
0.81385586 -0.42217585 0.39925706
0.80436778 -0.40208846 0.4373984
0.79388521 -0.38521884 0.47048137
0.78284126 -0.35919106 0.50807612
0.77188668 -0.33967025 0.53741518
0.75640301 -0.31918627 0.57094187
0.74265384 -0.30343143 0.59698797
0.73191625 -0.29164422 0.61582648
0.72108178 -0.27563694 0.63566134
0.70051651 -0.26277085 0.66349688
0.67075487 -0.24887392 0.69867709
0.64457893 -0.23099299 0.72880741
0.62627685 -0.21298299 0.7499437
0.61888312 -0.19395556 0.76116025
0.59596379 -0.18713317 0.78090225
0.58291992 -0.17011377 0.79452229
0.56760176 -0.15560504 0.80846479
0.55085572 -0.13636379 0.82338502
0.51785531 -0.13505138 0.84474079
0.47835139 -0.12586199 0.86910224
0.41523729 -0.096570634 0.90457289
0.33250109 -0.055286216 0.94148099
0.25527525 -0.032138015 0.96633415
0.18031058 -0.019924192 0.98340791
0.79867169 -0.55268646 0.23803615
0.80839214 -0.53439564 0.24682674
0.81403334 -0.51710791 0.26447897
0.81460441 -0.49828997 0.29686153
0.81368735 -0.47956567 0.3285265
0.81446977 -0.45923999 0.35459501
0.81297107 -0.43361632 0.38865785
0.80529638 -0.413083 0.42527658
0.79455398 -0.39676704 0.45963017
0.7850986 -0.37588374 0.49227188
0.76967285 -0.35519893 0.53050676
0.75433213 -0.33408844 0.56512649
0.74145222 -0.31840766 0.59064809
0.7251634 -0.31195265 0.61385958
0.70778912 -0.30292897 0.638176
0.6866747 -0.29429978 0.66472964
0.66083539 -0.28773841 0.69318337
0.63512992 -0.26930129 0.72393839
0.61575334 -0.24976549 0.74730517
0.60651379 -0.23709673 0.75889799
0.58485012 -0.23005404 0.77783384
0.57461948 -0.20844875 0.79143008
0.55445539 -0.19159735 0.80985781
0.53666574 -0.17318569 0.82583086
0.51147408 -0.17044042 0.84222582
0.47266946 -0.16115809 0.86637847
0.41734619 -0.14233536 0.8975315
0.34067975 -0.098736453 0.93498044
0.25489543 -0.064542911 0.96481218
0.18142091 -0.056376172 0.98178826
0.80073143 -0.55595452 0.22303308
0.80792601 -0.54167416 0.23204456
0.81210377 -0.5263768 0.25182319
0.81264542 -0.50750989 0.28642822
0.81430125 -0.48675579 0.31619974
0.81462329 -0.46931112 0.34078728
0.81249624 -0.44396935 0.37781091
0.8029662 -0.42636677 0.41648129
0.79279162 -0.40831121 0.45250791
0.78241104 -0.39084765 0.48484129
0.76709472 -0.37557602 0.52010417
0.7502964 -0.35406052 0.55829782
0.73360516 -0.33807976 0.58951297
0.71396276 -0.33449306 0.61511915
0.6985379 -0.32655068 0.63671772
0.67678173 -0.3209976 0.66251569
0.65091155 -0.31861403 0.68905678
0.625731 -0.30211448 0.71915754
0.60133099 -0.28725085 0.74557896
0.59102863 -0.2763739 0.75782757
0.57809705 -0.25963843 0.77355781
0.56052713 -0.24629167 0.79066412
0.543881 -0.22752649 0.80772839
0.52281724 -0.21734847 0.82427045
0.49840429 -0.20373167 0.84266635
0.45947113 -0.19611967 0.8662698
0.41406148 -0.18627275 0.89098572
0.34334801 -0.15516375 0.92630252
0.2553723 -0.11526048 0.95994792
0.16493637 -0.095117662 0.98170699
0.79564388 -0.57253727 0.19786835
0.80014392 -0.55951929 0.21612002
0.80884825 -0.5392882 0.23437735
0.8100626 -0.51827063 0.2742155
0.81309452 -0.49717433 0.30281181
0.81507859 -0.47807342 0.32725022
0.8110148 -0.45819982 0.36374156
0.80115915 -0.44045163 0.40514981
0.79105392 -0.42014739 0.44464578
0.77396454 -0.40677533 0.48529654
0.75660236 -0.40056945 0.51681427
0.74038089 -0.38276862 0.55256159
0.72675027 -0.36450381 0.58221217
0.70871598 -0.34454797 0.61563655
0.68803115 -0.34612802 0.63781543
0.66593145 -0.34416397 0.661881
0.64196193 -0.34282327 0.68582584
0.61786197 -0.33081114 0.71330959
0.59342738 -0.32142709 0.73792179
0.58075129 -0.29980595 0.7568648
0.56931833 -0.28607313 0.77073913
0.55180529 -0.27712916 0.78658143
0.52833522 -0.26561109 0.80641965
0.50419015 -0.26164052 0.82300457
0.48337755 -0.24453404 0.84056484
0.45349046 -0.23174884 0.86060379
0.40752771 -0.21868124 0.88662263
0.34343339 -0.20605015 0.91629517
0.26594387 -0.16218459 0.95024734
0.17130338 -0.14207213 0.97492085
0.78735734 -0.59388643 0.1654307
0.79344756 -0.57647498 0.19523723
0.80104576 -0.55704101 0.21915977
0.80728866 -0.53188665 0.25569828
0.80566467 -0.51847407 0.28651191
0.80761006 -0.4972618 0.31701213
0.80448022 -0.4808088 0.34876134
0.79804895 -0.45912878 0.39028021
0.7825643 -0.43710746 0.44331725
0.76489743 -0.42817295 0.48124822
0.74655699 -0.42282864 0.51368143
0.72770561 -0.41290251 0.54768245
0.71404758 -0.39525645 0.57784807
0.69596456 -0.37925336 0.60975423
0.67554472 -0.36824926 0.63877368
0.65136391 -0.36527311 0.66505684
0.62621664 -0.3652253 0.68881289
0.60521917 -0.35910808 0.7104584
0.58488486 -0.34528458 0.73395386
0.56845404 -0.33554196 0.75118013
0.556736 -0.31723835 0.76772707
0.53469485 -0.31502042 0.78413236
0.51217473 -0.31197963 0.80021607
0.48342143 -0.30336019 0.8211433
0.46477828 -0.28967861 0.83670034
0.43807886 -0.27236316 0.85668268
0.38686721 -0.25802596 0.88530016
0.33273318 -0.24090926 0.91172987
0.25172166 -0.22369916 0.94159168
0.1683208 -0.18943842 0.96735784
0.76886121 -0.62470536 0.13636591
0.77934075 -0.60290354 0.17069071
0.78837469 -0.58166217 0.20033588
0.79114551 -0.56424337 0.23604703
0.79769786 -0.53856008 0.27135063
0.79279362 -0.53029917 0.3004348
0.79067158 -0.51055007 0.33790099
0.7818192 -0.49320795 0.38145072
0.76829807 -0.47427108 0.42986627
0.74662726 -0.45839388 0.48210246
0.72824559 -0.45094602 0.51604849
0.72015855 -0.44207787 0.53473248
0.70323215 -0.42670925 0.56866841
0.67972785 -0.41141278 0.6072146
0.6563863 -0.40601807 0.63585089
0.63653955 -0.394892 0.66247846
0.61153418 -0.39083987 0.68794632
0.58297206 -0.38582935 0.71503796
0.56164718 -0.38262751 0.73358614
0.55059841 -0.36499833 0.75074471
0.52815369 -0.36686712 0.7658082
0.51444011 -0.36056227 0.77803999
0.489842 -0.34905994 0.7988817
0.4629264 -0.34586117 0.81613675
0.44362793 -0.33979224 0.82929819
0.41356283 -0.32052068 0.85219263
0.37138013 -0.30864059 0.87568133
0.31573926 -0.28933554 0.90365572
0.24929009 -0.27800138 0.92766895
0.17194623 -0.23217061 0.95735641
0.75527236 -0.64571202 0.11233716
0.75714668 -0.63540742 0.15161238
0.76491273 -0.61638782 0.18701492
0.77617063 -0.59399275 0.21149887
0.77464944 -0.58110022 0.249481
0.77696865 -0.56231443 0.28305864
0.76506314 -0.55958107 0.31866506
0.7617113 -0.53701252 0.36250994
0.74529897 -0.51585149 0.42240584
0.72640146 -0.49495819 0.47682
0.7110849 -0.48756713 0.50659309
0.69945807 -0.4772367 0.53198077
0.68235205 -0.46465092 0.5643538
0.6602754 -0.44948316 0.60166543
0.63667452 -0.44479243 0.62992479
0.6131346 -0.43768294 0.65764702
0.59240591 -0.43253178 0.67968485
0.5629236 -0.41615781 0.71409362
0.54263047 -0.41480507 0.73040326
0.52523889 -0.40535279 0.74820668
0.51034106 -0.40087734 0.7608215
0.49360707 -0.39661145 0.77398412
0.46831103 -0.39070188 0.79248774
0.43836939 -0.38613964 0.81162088
0.41223028 -0.38504051 0.82571787
0.39345848 -0.36805581 0.84245198
0.3490626 -0.35631191 0.86671629
0.29996208 -0.34018641 0.89123283
0.24710392 -0.30929232 0.91830165
0.16158825 -0.28935439 0.94348464
0.72692792 -0.68067131 0.09089756
0.73129705 -0.67026735 0.12627865
0.7384077 -0.6547159 0.16155852
0.74295738 -0.64149704 0.19103894
0.74470504 -0.62558049 0.2325155
0.74585856 -0.61271296 0.26130028
0.74290613 -0.59659637 0.30358401
0.73210433 -0.58444957 0.34991705
0.71736077 -0.56569096 0.40667832
0.70085301 -0.5394062 0.46673977
0.68884047 -0.518826 0.50627896
0.67446951 -0.51205764 0.53187203
0.65115261 -0.50661146 0.56510628
0.62906142 -0.49989471 0.59530413
0.61053373 -0.48914477 0.62288519
0.58156248 -0.4820402 0.65530323
0.55733699 -0.4714925 0.68342541
0.53311969 -0.45823607 0.71119836
0.51425507 -0.4491309 0.73063203
0.50368778 -0.44187776 0.74232248
0.48039838 -0.44547914 0.75549039
0.45785052 -0.43844505 0.77339436
0.44376173 -0.4282307 0.78720645
0.41277577 -0.42672926 0.80468522
0.3862178 -0.42484611 0.81874391
0.36189189 -0.41751281 0.83349704
0.33489276 -0.38912467 0.85815432
0.28016656 -0.3865658 0.87867718
0.23036016 -0.36172572 0.90337628
0.14539768 -0.33487114 0.93097843
0.69888259 -0.71186688 0.069344652
0.70204152 -0.70436391 0.10492471
0.70708039 -0.69422247 0.1345083
0.7133755 -0.68186922 0.16170889
0.72001045 -0.6625853 0.20631452
0.72259395 -0.64719111 0.24290256
0.72253425 -0.63396253 0.27574584
0.71292272 -0.61897091 0.32956973
0.70019573 -0.59769234 0.39049943
0.67792712 -0.57845097 0.45366209
0.66302645 -0.5586285 0.49832733
0.6369739 -0.54916685 0.5409991
0.61855041 -0.54317441 0.56776487
0.58960845 -0.54078693 0.59992614
0.56830811 -0.53337152 0.62653069
0.53845885 -0.5313575 0.65400403
0.52015908 -0.5159939 0.68057683
0.49983145 -0.50066589 0.70675469
0.48547203 -0.48974621 0.72419994
0.46528141 -0.48300648 0.74176677
0.44870591 -0.47358266 0.75788025
0.44353052 -0.46437306 0.76657572
0.40849815 -0.46374017 0.78617702
0.37765222 -0.46572565 0.80029896
0.35294819 -0.46674239 0.81091252
0.33091534 -0.4592574 0.82436502
0.30265772 -0.44506731 0.84280092
0.25752315 -0.42610929 0.86724431
0.21152999 -0.40493162 0.88954227
0.14181758 -0.37197049 0.91734711
0.67811433 -0.73293536 0.054467554
0.67852081 -0.73012021 0.080833116
0.68662707 -0.71843617 0.11132265
0.69718773 -0.70418404 0.13436554
0.70502592 -0.68744565 0.1742324
0.70641982 -0.67453853 0.21440336
0.70800688 -0.65978663 0.25180918
0.70300942 -0.6442754 0.30114276
0.68642038 -0.62450508 0.37258617
0.66286251 -0.60628335 0.43935612
0.63585673 -0.59097889 0.49641734
0.60509336 -0.58570652 0.53926792
0.5857157 -0.57806365 0.5681369
0.54896748 -0.58068539 0.60119812
0.52726022 -0.57206984 0.62827761
0.4983591 -0.57135722 0.65206528
0.47597997 -0.56314351 0.67550903
0.4634215 -0.54302283 0.70026189
0.44669161 -0.53551008 0.71672558
0.43745335 -0.515146 0.73706117
0.42182015 -0.50909457 0.75026028
0.40755086 -0.49854286 0.76508647