# vtk DataFile Version 2.0
Grain example
ASCII
DATASET UNSTRUCTURED_GRID
POINTS 900 float
-20.308371 -28.065738 -0.048398389
-19.449812 -28.010012 -0.18503137
-18.66912 -27.966928 -0.24980154
-17.865002 -27.948639 -0.31711469
-17.042507 -27.940211 -0.39270002
-16.215909 -27.919059 -0.48287566
-15.384327 -27.897633 -0.56941708
-14.575304 -27.856993 -0.64352879
-13.80292 -27.798853 -0.71617904
-13.05358 -27.732045 -0.79815784
-12.345304 -27.666647 -0.88245929
-11.67135 -27.617712 -0.92179321
-11.04532 -27.576508 -0.90545706
-10.44524 -27.532159 -0.85062873
-9.8400562 -27.475322 -0.80988113
-9.2392045 -27.417865 -0.77164737
-8.6070951 -27.358438 -0.7104296
-7.9957829 -27.297988 -0.63576132
-7.342174 -27.208923 -0.55095032
-6.6591671 -27.092676 -0.45245148
-5.9532101 -26.949962 -0.33849305
-5.0994989 -26.721984 -0.20717609
-4.2238116 -26.445362 -0.09160794
-3.2515825 -26.0669 0.0050689419
-2.3008608 -25.630762 0.049386741
-1.3713013 -25.192113 0.094530866
-0.48109393 -24.746403 0.10442571
0.3632008 -24.314843 0.13281243
1.0849316 -23.893131 0.1841775
1.7364457 -23.512155 0.25779503
-20.348309 -27.837349 -0.94302331
-19.495684 -27.784337 -1.0857808
-18.678887 -27.72769 -1.1964712
-17.864967 -27.709775 -1.2978039
-17.041589 -27.693127 -1.407079
-16.211041 -27.678455 -1.5129062
-15.367652 -27.660878 -1.6212083
-14.543891 -27.609479 -1.7310603
-13.765527 -27.555774 -1.8029336
-12.997788 -27.480257 -1.8791994
-12.284675 -27.416007 -1.9475423
-11.657131 -27.394454 -1.9449482
-11.028874 -27.37202 -1.9277096
-10.432196 -27.339658 -1.8707474
-9.8503208 -27.314542 -1.7889395
-9.2808033 -27.275362 -1.7320357
-8.6618783 -27.223244 -1.6583995
-8.0317349 -27.151171 -1.5755271
-7.3982432 -27.073396 -1.4793144
-6.7144403 -26.959671 -1.3551801
-6.0051882 -26.828523 -1.2341622
-5.1566675 -26.630525 -1.095239
-4.2465731 -26.369548 -0.98801674
-3.2687714 -26.034049 -0.89959176
-2.2987207 -25.586875 -0.83367529
-1.34043 -25.125548 -0.77869139
-0.42350133 -24.686528 -0.72846374
0.39817517 -24.257215 -0.67009759
1.1223249 -23.868779 -0.57463833
1.7393695 -23.505281 -0.4569201
-20.384805 -27.577833 -1.8388512
-19.530911 -27.523286 -2.0065646
-18.688611 -27.450403 -2.141472
-17.861558 -27.425518 -2.2555123
-17.040037 -27.40461 -2.3628593
-16.211622 -27.368451 -2.4809753
-15.355241 -27.31083 -2.6041853
-14.51801 -27.23526 -2.713573
-13.72559 -27.153218 -2.794937
-12.949916 -27.068492 -2.8858021
-12.306878 -27.065311 -2.8998675
-11.672408 -27.060671 -2.8917411
-11.062872 -27.060961 -2.8505033
-10.482671 -27.069983 -2.768544
-9.8908236 -27.062066 -2.6590841
-9.2930872 -27.036369 -2.559183
-8.6920869 -26.9937 -2.4779981
-8.0844872 -26.9493 -2.3977197
-7.467876 -26.882936 -2.3149575
-6.7825398 -26.771819 -2.1984763
-6.0548767 -26.648794 -2.0776545
-5.1927148 -26.491125 -1.9664376
-4.2564014 -26.266147 -1.8547718
-3.2753933 -25.963669 -1.755253
-2.2901501 -25.533386 -1.6915943
-1.3074454 -25.065578 -1.6351822
-0.39102909 -24.609154 -1.5924514
0.41801749 -24.17947 -1.5290017
1.123741 -23.797377 -1.4206283
1.7271192 -23.449804 -1.2534529
-20.37131 -27.161356 -2.7306187
-19.506479 -27.099755 -2.9124892
-18.661737 -26.998541 -3.0648806
-17.800879 -26.942223 -3.1994876
-16.970186 -26.892336 -3.3192001
-16.149878 -26.84205 -3.4187695
-15.296886 -26.782544 -3.5159074
-14.465797 -26.712461 -3.6066576
-13.678546 -26.635881 -3.6687025
-12.990486 -26.623443 -3.658328
-12.359956 -26.634847 -3.6245028
-11.728393 -26.646742 -3.5903378
-11.109312 -26.659235 -3.5449682
-10.517012 -26.668264 -3.4816805
-9.9268881 -26.656204 -3.4242619
-9.3240181 -26.634726 -3.3442418
-8.7102334 -26.61225 -3.2627112
-8.1088944 -26.584201 -3.1855477
-7.4897887 -26.547772 -3.1168459
-6.8365896 -26.499233 -3.0358214
-6.1030174 -26.412955 -2.9318372
-5.2097534 -26.275223 -2.7939866
-4.2743828 -26.094373 -2.6891859
-3.256784 -25.805755 -2.6019137
-2.2756992 -25.424404 -2.5576907
-1.2701403 -24.95416 -2.5005932
-0.34323332 -24.493129 -2.4505527
0.45204357 -24.043411 -2.384872
1.1306989 -23.680664 -2.2557002
1.7377518 -23.345334 -2.0834032
-20.354706 -26.668108 -3.5489924
-19.485835 -26.597261 -3.7616085
-18.645935 -26.510696 -3.8878716
-17.768676 -26.440286 -4.0275806
-16.953549 -26.391387 -4.1317576
-16.126758 -26.338408 -4.2248406
-15.27622 -26.277732 -4.3227851
-14.442758 -26.21912 -4.3935484
-13.70746 -26.191169 -4.392983
-13.053019 -26.203434 -4.3501053
-12.424689 -26.214751 -4.3177295
-11.786991 -26.218616 -4.2867953
-11.167911 -26.231107 -4.2414257
-10.561624 -26.225441 -4.1911943
-9.9547527 -26.213854 -4.1428514
-9.3565138 -26.204767 -4.088834
-8.7494477 -26.188771 -3.996561
-8.1468162 -26.176797 -3.8968687
-7.5120029 -26.157732 -3.8169343
-6.8485153 -26.125386 -3.7545082
-6.1230508 -26.043128 -3.6793656
-5.2629443 -25.937102 -3.581434
-4.2863849 -25.781898 -3.5013293
-3.2471372 -25.560133 -3.4359711
-2.2300083 -25.241996 -3.3875322
-1.2466032 -24.822709 -3.3637727
-0.30523945 -24.356202 -3.3165356
0.50367272 -23.927419 -3.2538549
1.1611663 -23.562161 -3.1238568
1.7679588 -23.203081 -2.9827834
-20.383253 -26.081288 -4.2605534
-19.492852 -26.006511 -4.4823887
-18.666741 -25.915565 -4.6418292
-17.77768 -25.835755 -4.8068265
-16.93753 -25.804578 -4.9071242
-16.121441 -25.764552 -4.9903272
-15.276408 -25.717311 -5.0684344
-14.475626 -25.701073 -5.1058524
-13.77021 -25.731232 -5.0751087
-13.11141 -25.741851 -5.0414884
-12.486062 -25.754638 -5.0122706
-11.851801 -25.770714 -4.9793946
-11.223546 -25.754228 -4.9463909
-10.618695 -25.747263 -4.8826751
-10.01636 -25.744334 -4.8169819
-9.4157578 -25.738169 -4.7500443
-8.802776 -25.736046 -4.6843791
-8.183262 -25.734626 -4.6147503
-7.5296221 -25.733836 -4.5491088
-6.863164 -25.71525 -4.4814995
-6.1352605 -25.654292 -4.3937183
-5.2584961 -25.551313 -4.3001126
-4.2878343 -25.415075 -4.2585758
-3.2636475 -25.232734 -4.2163747
-2.233368 -24.988399 -4.1435788
-1.2228476 -24.597645 -4.1395008
-0.27612439 -24.198227 -4.1306222
0.53742667 -23.773769 -4.0865587
1.1928985 -23.407781 -3.9810155
1.802168 -23.056278 -3.8565883
-20.435577 -25.408172 -4.9505258
-19.536936 -25.310722 -5.1901144
-18.706428 -25.219945 -5.3466564
-17.8431 -25.150472 -5.4831597
-16.973048 -25.103228 -5.604775
-16.134679 -25.059696 -5.7037478
-15.300382 -25.033107 -5.7777913
-14.569994 -25.086052 -5.774002
-13.847317 -25.130362 -5.7555266
-13.191235 -25.15884 -5.7237193
-12.569007 -25.185438 -5.6935443
-11.929829 -25.196211 -5.6600423
-11.309296 -25.196923 -5.6115586
-10.699749 -25.207013 -5.5439511
-10.09472 -25.219701 -5.4746614
-9.4894541 -25.226852 -5.4145345
-8.8605785 -25.247874 -5.3688444
-8.231014 -25.258332 -5.3349738
-7.5811237 -25.265948 -5.2849825
-6.9014888 -25.264911 -5.2147669
-6.1682742 -25.227824 -5.1412925
-5.2296265 -25.147151 -5.048891
-4.243438 -25.019068 -4.9994365
-3.2282416 -24.85065 -4.9806418
-2.2343893 -24.674477 -4.9538266
-1.1897765 -24.364769 -4.9316182
-0.22852517 -23.951497 -4.9461762
0.55805516 -23.571642 -4.9137425
1.2108267 -23.215587 -4.7821112
1.8271506 -22.870918 -4.6552319
-20.479604 -24.712838 -5.6045809
-19.61243 -24.634564 -5.8262699
-18.754757 -24.542679 -6.0037715
-17.904092 -24.469097 -6.1458925
-17.012273 -24.412382 -6.2858897
-16.158539 -24.365701 -6.3854194
-15.390953 -24.414805 -6.4138748
-14.648618 -24.470757 -6.4243681
-13.92478 -24.523336 -6.4113166
-13.273445 -24.558993 -6.3679371
-12.640115 -24.56794 -6.3370844
-12.002101 -24.573402 -6.3071342
-11.389336 -24.585708 -6.2592221
-10.788739 -24.605928 -6.1986475
-10.178995 -24.629612 -6.1411341
-9.5602194 -24.663044 -6.0982349
-8.9155448 -24.688974 -6.0723578
-8.2893652 -24.709325 -6.0415122
-7.6449821 -24.730743 -6.0090671
-6.9640508 -24.750819 -5.9538449
-6.2041897 -24.749379 -5.8922357
-5.2205442 -24.68807 -5.8273048
-4.1885537 -24.5883 -5.7878888
-3.1483797 -24.457786 -5.7635661
-2.1543255 -24.307582 -5.7392847
-1.1312079 -24.050868 -5.7548669
-0.16922331 -23.681046 -5.7957089
0.56744382 -23.318856 -5.7379516
1.2247887 -23.003192 -5.6084735
1.8501132 -22.662356 -5.4808192
-20.533972 -24.021413 -6.1877305
-19.677463 -23.955413 -6.4259901
-18.800588 -23.867434 -6.6471966
-17.960521 -23.790728 -6.7942555
-17.066297 -23.724818 -6.9526682
-16.243496 -23.741331 -7.0063276
-15.493148 -23.810613 -7.0078474
-14.746019 -23.881186 -7.005806
-14.007635 -23.939872 -7.0008366
-13.34403 -23.943539 -6.9991613
-12.711741 -23.945441 -6.9839634
-12.071539 -23.948154 -6.9571888
-11.463926 -23.965586 -6.9031827
-10.85748 -23.989144 -6.8478431
-10.23925 -24.01287 -6.8182574
-9.610073 -24.04285 -6.7925935
-8.9712073 -24.073626 -6.7642373
-8.3413227 -24.107284 -6.7374817
-7.6927316 -24.134667 -6.7167504
-6.9954273 -24.14393 -6.7095993
-6.232375 -24.153342 -6.6708259
-5.2353815 -24.131812 -6.6165239
-4.169461 -24.081487 -6.5960313
-3.0875856 -24.001198 -6.5824995
-2.0359687 -23.871179 -6.5911576
-1.0189238 -23.664073 -6.6060766
-0.072515515 -23.324335 -6.6411832
0.58648822 -23.047044 -6.5652381
1.2416778 -22.734996 -6.434272
1.8748506 -22.427025 -6.3084466
-20.588974 -23.308336 -6.7415298
-19.754827 -23.247933 -6.9858891
-18.875155 -23.170931 -7.2134317
-18.017771 -23.101854 -7.388053
-17.160156 -23.097729 -7.5371739
-16.351846 -23.151228 -7.5814019
-15.596981 -23.217909 -7.5846051
-14.843151 -23.284095 -7.5881469
-14.090831 -23.324686 -7.5937107
-13.407757 -23.338671 -7.5931535
-12.77474 -23.345808 -7.5881411
-12.143922 -23.331909 -7.5958025
-11.535182 -23.347119 -7.5528426
-10.912704 -23.375765 -7.5240371
-10.283401 -23.403908 -7.5002784
-9.6583634 -23.430983 -7.478649
-9.0206208 -23.458912 -7.4590439
-8.3674259 -23.477185 -7.4552785
-7.6947498 -23.492411 -7.4560611
-6.9922263 -23.490381 -7.4570617
-6.2359932 -23.501597 -7.4479502
-5.2295977 -23.508016 -7.4402565
-4.157674 -23.456747 -7.4199841
-3.040561 -23.353801 -7.4461275
-1.9449245 -23.251273 -7.4742855
-0.89778938 -23.121553 -7.4706506
-0.0045767354 -22.866132 -7.4627107
0.66183932 -22.645142 -7.3550064
1.2994502 -22.405416 -7.2353083
1.9071616 -22.125376 -7.1041565
-20.649608 -22.596122 -7.1716666
-19.83385 -22.554488 -7.4967715
[...]
POINT_DATA 900
VECTORS normals float
-0.063974729 -0.99767306 -0.023573266
-0.023147506 -0.99803813 -0.058172958
-0.008594425 -0.99493289 -0.1001732
0.00091060445 -0.99180354 -0.12776895
0.016824232 -0.98972854 -0.14196607
0.01370176 -0.99218638 -0.12400991
0.032887965 -0.98954689 -0.14041133
0.039732925 -0.98909199 -0.14183911
0.071580878 -0.98808768 -0.13623112
0.085786819 -0.98262001 -0.16461635
0.085168165 -0.98310999 -0.16199115
0.083405675 -0.98701752 -0.13725854
0.081999937 -0.99002485 -0.11457228
0.087774636 -0.99228578 -0.087547435
0.098550465 -0.99289252 -0.066725222
0.11265377 -0.9905774 -0.077881603
0.131317 -0.98850675 -0.074901626
0.16579015 -0.98302398 -0.078596992
0.19194097 -0.98016706 -0.049307213
0.21476662 -0.97608422 -0.033688324
0.24110326 -0.97043812 -0.010912068
0.27105759 -0.96255703 0.003427192
0.30297759 -0.95286645 0.015814577
0.34279416 -0.93927501 0.015957005
0.39345382 -0.91931161 -0.0077625928
0.43703421 -0.89942268 -0.0063209906
0.46730015 -0.88406555 -0.0076593501
0.49371286 -0.86949891 -0.014807553
0.51924266 -0.85458535 -0.0084231587
0.54442672 -0.83878831 -0.0058064293
-0.052723118 -0.97649428 -0.20899566
-0.029563701 -0.9632628 -0.26692837
-0.010892481 -0.95491988 -0.29666373
0.00085322541 -0.95112091 -0.30881756
0.0048492252 -0.9460678 -0.32393242
0.0084359355 -0.94211517 -0.3351833
0.014457686 -0.94154253 -0.33658377
0.026897101 -0.93841871 -0.34445154
0.040105675 -0.93929465 -0.34075958
0.046994018 -0.93642547 -0.34770521
0.057712342 -0.94032779 -0.33534002
0.066763578 -0.94772476 -0.3120263
0.067616503 -0.95627555 -0.28454364
0.083212421 -0.95892073 -0.271195
0.09080684 -0.96132727 -0.26000767
0.10340062 -0.96517796 -0.24029109
0.12939573 -0.96417658 -0.23156051
0.15387838 -0.96169756 -0.22684632
0.19033006 -0.96371519 -0.18715633
0.20454959 -0.96451609 -0.16693764
0.2376534 -0.95945266 -0.15156338
0.26746804 -0.95711415 -0.11132547
0.2995816 -0.94972013 -0.091008472
0.34462932 -0.93574412 -0.074923754
0.39497849 -0.91599439 -0.070329694
0.43622403 -0.89781898 -0.060246765
0.46771915 -0.88233401 -0.052206298
0.49745839 -0.86565775 -0.056318819
0.51874974 -0.85311874 -0.055561896
0.54101303 -0.83968394 -0.047283973
-0.035880154 -0.93070934 -0.36399551
-0.016359701 -0.92358292 -0.38304954
-0.0041310836 -0.91412355 -0.4054147
-0.0027547967 -0.90561685 -0.42408787
-0.0036323828 -0.90247133 -0.43073461
0.0023164744 -0.89030344 -0.45536185
0.0083266764 -0.8859347 -0.46373524
0.016136761 -0.87882769 -0.47686634
0.025127501 -0.87951155 -0.47521369
0.020813941 -0.88280106 -0.4692857
0.025759088 -0.88590155 -0.46315756
0.039878063 -0.89851931 -0.43711873
0.051445524 -0.90444599 -0.42347469
0.066695723 -0.91408947 -0.39999014
0.085703399 -0.92147142 -0.37887379
0.092384872 -0.9287747 -0.35894652
0.115566 -0.93061885 -0.34726512
0.14107002 -0.93276608 -0.33173285
0.16990735 -0.93842681 -0.30080994
0.18499967 -0.94095418 -0.2835143
0.21180978 -0.94453691 -0.25097138
0.25017743 -0.94306767 -0.21916804
0.28392232 -0.9411374 -0.18343528
0.33582523 -0.92989269 -0.15007
0.38531758 -0.91480681 -0.1210738
0.43024996 -0.89745263 -0.097281774
0.46825149 -0.88000502 -0.079572002
0.49831019 -0.86356945 -0.07703737
0.5240752 -0.84841331 -0.07443144
0.54203229 -0.83699204 -0.075135318
-0.033512693 -0.88399219 -0.46629895
-0.019437521 -0.86979812 -0.49302475
-0.0017804766 -0.862442 -0.50615277
-0.0051093849 -0.85396735 -0.52030151
-0.0047509365 -0.84964912 -0.52732704
-0.0022590473 -0.84892801 -0.52850367
0.0018628753 -0.84177661 -0.53982282
0.0061194086 -0.84001966 -0.54252144
0.015016443 -0.84296648 -0.53775647
0.010475875 -0.84424358 -0.53585728
0.013964586 -0.85875139 -0.51220216
0.023897073 -0.86094685 -0.5081333
0.043749164 -0.86819135 -0.49429727
0.058842531 -0.87583599 -0.47900823
0.080408804 -0.87606441 -0.4754425
0.08360699 -0.88102128 -0.46563009
0.092986024 -0.88977446 -0.44682773
0.10991628 -0.89634782 -0.42951018
0.13888163 -0.90301398 -0.40654353
0.1632067 -0.90831043 -0.38514379
0.18524446 -0.91977036 -0.34598695
0.21884977 -0.92595855 -0.30774266
0.25658737 -0.9297215 -0.26416065
0.30795594 -0.92565766 -0.21982048
0.36108058 -0.91400012 -0.18499889
0.4143683 -0.89906857 -0.14133163
0.45998128 -0.88115107 -0.10949892
0.5010504 -0.8600506 -0.096236524
0.52433499 -0.84633584 -0.093746814
0.54476463 -0.83353305 -0.091946454
-0.029400493 -0.81525765 -0.5783516
-0.026481604 -0.80567208 -0.59176956
-0.018023284 -0.80737037 -0.58976966
-0.011697481 -0.81196297 -0.58359173
-0.016638075 -0.80466112 -0.59350119
-0.012093656 -0.80950965 -0.586982
-0.007885663 -0.80709702 -0.59036617
-0.0012276061 -0.80903106 -0.58776461
0.00065281707 -0.81657666 -0.57723663
0.0050047829 -0.82392541 -0.56667617
0.006027502 -0.8242905 -0.566135
0.017069097 -0.82681975 -0.56220793
0.034676 -0.8334628 -0.55148648
0.051125003 -0.83725864 -0.54441179
0.065894745 -0.8398286 -0.53883746
0.067629843 -0.84373031 -0.53248979
0.075355395 -0.85371801 -0.51525443
0.093739915 -0.86758705 -0.48837029
0.11584767 -0.87780474 -0.46479905
0.1395648 -0.88301383 -0.44811632
0.16203927 -0.89292483 -0.42003396
0.19201867 -0.90320921 -0.38385146
0.2298219 -0.91030294 -0.34428252
0.27795617 -0.9129143 -0.29887765
0.3210342 -0.91010251 -0.26201233
0.3855729 -0.90017575 -0.20252694
0.44235099 -0.88308522 -0.15648036
0.49371931 -0.85977127 -0.1305167
0.52241822 -0.8438214 -0.12265663
0.54751479 -0.82912666 -0.11303333
-0.046292676 -0.75108997 -0.65857486
-0.042878928 -0.74812175 -0.66217464
-0.034452492 -0.75222493 -0.65800508
-0.032895165 -0.75468596 -0.65526103
-0.028697905 -0.76096912 -0.64815309
-0.028108466 -0.76495709 -0.64346762
-0.021555919 -0.77080698 -0.63670397
-0.018395969 -0.77500617 -0.63168586
-0.0088722215 -0.78676237 -0.61719224
-0.0057391904 -0.79085847 -0.61197217
0.00050046493 -0.79173027 -0.61087063
0.012774423 -0.79224658 -0.61006735
0.028032273 -0.7940793 -0.60716741
0.037968654 -0.8002888 -0.59841141
0.052840949 -0.80664585 -0.58866825
0.04914241 -0.81282922 -0.58042543
0.057752416 -0.82548371 -0.56146354
0.066521575 -0.83724465 -0.54276725
0.093089877 -0.84861463 -0.52075664
0.10851528 -0.85822416 -0.50167293
0.13358296 -0.86769527 -0.47881157
0.15760487 -0.88136416 -0.4453739
0.19048003 -0.89210525 -0.40971402
0.23562956 -0.89821999 -0.37105197
0.296274 -0.90381622 -0.30876845
0.35959963 -0.8976654 -0.25472521
0.41945234 -0.88435094 -0.20489792
0.4810686 -0.85947514 -0.17284526
0.51655312 -0.84119641 -0.15987956
0.54503508 -0.82488167 -0.15002333
-0.08109897 -0.69730167 -0.71217507
-0.064643184 -0.70828453 -0.70296109
-0.056841232 -0.71533374 -0.69646731
-0.051124968 -0.7198758 -0.6922175
-0.044047183 -0.72812768 -0.6840248
-0.041773318 -0.73116297 -0.68092268
-0.041107084 -0.7369361 -0.67471135
-0.031228925 -0.7451987 -0.66611084
-0.017064912 -0.7500432 -0.66116866
-0.012513011 -0.75215045 -0.65887261
0.0021271015 -0.75620962 -0.65432598
0.010962419 -0.75378013 -0.65703527
0.01925665 -0.75749337 -0.6525588
0.030257719 -0.76465225 -0.64373241
0.036690445 -0.77531293 -0.63051064
0.031033278 -0.7837963 -0.62024212
0.034011424 -0.79564142 -0.60481233
0.043458756 -0.80628868 -0.58992363
0.061243047 -0.81857852 -0.57112039
0.075884933 -0.83300227 -0.54804077
0.099516534 -0.84565798 -0.52436537
0.12596071 -0.85834557 -0.49736986
0.16053 -0.87454613 -0.45760157
0.20462617 -0.88465261 -0.41894854
0.2530226 -0.89129139 -0.37627014
0.31884955 -0.89264476 -0.3186225
0.40305541 -0.87830533 -0.25714992
0.45961649 -0.85829398 -0.22821945
0.50522038 -0.83979741 -0.19872766
0.53941776 -0.82097882 -0.18714237
-0.13014347 -0.65148225 -0.74741792
-0.10148502 -0.67540997 -0.73042602
-0.081787002 -0.69003448 -0.71914067
-0.065644301 -0.70184972 -0.70929388
-0.060351139 -0.70501844 -0.7066164
-0.055731239 -0.71662905 -0.6952243
-0.048184395 -0.71907965 -0.69325517
-0.038504174 -0.72575669 -0.6868731
-0.024115747 -0.72825609 -0.68488064
-0.015192216 -0.73070208 -0.68252741
-0.0034137126 -0.73121335 -0.6821403
0.0081623409 -0.73159468 -0.68169098
0.015581803 -0.7344486 -0.67848542
0.016006223 -0.73931516 -0.67316929
0.017464634 -0.75167836 -0.65929859
0.010064689 -0.7620429 -0.64744831
0.011022117 -0.771351 -0.6363145
0.019093445 -0.78246332 -0.62240389
0.028533885 -0.79125838 -0.61081584
0.048988339 -0.80453956 -0.59187519
0.073052018 -0.81987589 -0.56786172
0.10164963 -0.83588322 -0.53941319
0.12851979 -0.85199735 -0.50752653
0.16492212 -0.86630282 -0.47150834
0.21236869 -0.87824425 -0.42847003
0.28136489 -0.88311148 -0.3754303
0.37177098 -0.87218781 -0.31792257
0.42761953 -0.85710498 -0.28725005
0.48706308 -0.83819778 -0.24534475
0.52501095 -0.82041752 -0.22644778
-0.17122701 -0.61229802 -0.77186297
-0.1399734 -0.63336423 -0.76108948
-0.10858461 -0.66367155 -0.74010098
-0.086161489 -0.67976924 -0.72834743
-0.075175184 -0.69349853 -0.71652528
-0.065601084 -0.70411411 -0.70705008
-0.055087647 -0.71111883 -0.70091038
-0.044629567 -0.7160374 -0.6966338
-0.026412391 -0.71991613 -0.69355833
-0.015767278 -0.71972451 -0.6940807
-0.0026983939 -0.72048742 -0.69346275
0.0057050084 -0.71964449 -0.69431928
0.0067407038 -0.72357045 -0.69021762
0.0021772793 -0.72896301 -0.68454963
-0.0025061396 -0.74164975 -0.67078265
-0.0091006037 -0.75019884 -0.66114967
-0.010117567 -0.75611676 -0.65435853
-0.0070468964 -0.76642233 -0.64229834
0.0048570311 -0.77228883 -0.63525299
0.022721494 -0.78190573 -0.62298247
0.043115926 -0.7929225 -0.60779513
0.0687018 -0.80754647 -0.58578901
0.095734072 -0.82879369 -0.55130391
0.13502225 -0.84412441 -0.51886701
0.18267935 -0.85644354 -0.48283819
0.25052913 -0.86497273 -0.43480724
0.33787906 -0.86306831 -0.37543419
0.39453157 -0.85333032 -0.34084043
0.45989247 -0.83467058 -0.30302465
0.5019616 -0.82167576 -0.26996944
-0.22478677 -0.5624636 -0.79567934
-0.1844499 -0.5928392 -0.78391321
-0.14809478 -0.6188766 -0.77140112
-0.12045735 -0.64247301 -0.75678165
-0.10167628 -0.66599664 -0.73899283
-0.085690416 -0.68455846 -0.72390391
-0.064948509 -0.701229 -0.70997154
-0.047362988 -0.70817283 -0.70444871
-0.033445395 -0.71261265 -0.70076003
-0.018683651 -0.71265998 -0.70126077
-0.0031468491 -0.71562167 -0.69848101
-0.0024790724 -0.71671733 -0.69735939
-0.0053537187 -0.72182138 -0.69205869
-0.01087442 -0.72912476 -0.6842944
-0.021281476 -0.73808108 -0.67437631
-0.02647153 -0.74344037 -0.66827814
-0.024503457 -0.7484095 -0.66278413
-0.021274578 -0.75426011 -0.65623096
-0.0080517939 -0.76131744 -0.64832933
0.0038949813 -0.76818799 -0.6402125
0.019224907 -0.77593801 -0.63051615
0.045311492 -0.78766545 -0.61443471
0.069613149 -0.80585964 -0.58800022
0.10380552 -0.81828379 -0.56536364
0.16114673 -0.83235026 -0.5303063
0.22266102 -0.84069224 -0.49361789
0.3023122 -0.8394711 -0.45154801
0.36123788 -0.83600363 -0.41304372
0.42734769 -0.82839922 -0.36211694
0.47221208 -0.81655482 -0.33204516
-0.27066878 -0.50599451 -0.81896763
-0.23218478 -0.5369806 -0.81101298
-0.1957689 -0.56559967 -0.80110645
-0.17240415 -0.5924299 -0.78695846
-0.13802218 -0.63072121 -0.76363645
-0.11618778 -0.65522343 -0.74644669
-0.091443841 -0.67911317 -0.7283154
-0.066162072 -0.69528256 -0.7156848
-0.041720752 -0.70600482 -0.70697707
-0.023078556 -0.71081414 -0.70300117
-0.012060702 -0.71545062 -0.69855919
-0.010693837 -0.71879257 -0.69514235
-0.01496332 -0.72529478 -0.68827581
-0.022006101 -0.73114409 -0.68186805
-0.032299752 -0.73786669 -0.67417318
-0.037891998 -0.74285875 -0.66837495
-0.033276622 -0.74716543 -0.66380455
-0.028566567 -0.75035221 -0.66042071
-0.018920371 -0.75606457 -0.6542235
-0.0097946726 -0.75977688 -0.65011011
0.0049356155 -0.76572754 -0.64314616
0.02065729 -0.77422398 -0.63257451
0.043427147 -0.78311461 -0.62035924
0.074146199 -0.79554746 -0.60133733
0.12971557 -0.80597331 -0.57756462
0.1929154 -0.81691677 -0.54353532
0.26024289 -0.8184172 -0.51231526
0.31626611 -0.8198786 -0.4772576
0.38560606 -0.81391319 -0.43457252
0.43206821 -0.81268483 -0.39097369
-0.32292776 -0.44683014 -0.8343024
-0.28520234 -0.48689203 -0.82558814
-0.24355132 -0.52014993 -0.81861273
-0.21392733 -0.55330458 -0.80503984
-0.1758469 -0.59524727 -0.7840654
-0.14992457 -0.62168862 -0.76878207
-0.12189226 -0.64913798 -0.75084097
-0.091362565 -0.67005786 -0.73666502
-0.059312532 -0.69025993 -0.72112638
-0.035766214 -0.70455291 -0.70874958
-0.02750246 -0.71219669 -0.70144101
-0.017363502 -0.71890533 -0.69489109
-0.025206045 -0.72358996 -0.68976969
-0.0354267 -0.73078322 -0.6816897
-0.042747047 -0.73627798 -0.67532764
-0.048814794 -0.73956973 -0.67130748
-0.048873196 -0.74236948 -0.66820578
-0.039931071 -0.74613417 -0.6645971
-0.030989762 -0.75181378 -0.65864686
-0.019924166 -0.7562747 -0.65395076
-0.0093241112 -0.76204522 -0.64745667
0.0096146185 -0.76772893 -0.64070262
0.02794499 -0.77418054 -0.63234766
0.055835311 -0.78272946 -0.61985241
0.10563532 -0.78909971 -0.60511389
0.16700436 -0.79621928 -0.58150185
0.21838054 -0.79578617 -0.56483123
0.27723684 -0.79566776 -0.53856527
0.3200265 -0.80132584 -0.50543044
0.37369938 -0.8003701 -0.46878192
-0.36633624 -0.38674247 -0.84630256
-0.32856341 -0.43612878 -0.83775759
-0.29088115 -0.47188359 -0.83229444
-0.25155067 -0.51678524 -0.81832468
-0.22272572 -0.55104707 -0.8042017
-0.19288552 -0.58592984 -0.78707141
-0.16097391 -0.6183971 -0.76920246
-0.12943792 -0.64638166 -0.75195517
-0.097099322 -0.66721121 -0.73851264
-0.069299733 -0.68735273 -0.72301022
-0.045860509 -0.70368133 -0.70903413
-0.038159716 -0.71374471 -0.69936566
-0.041267364 -0.72091271 -0.69179612
-0.045707461 -0.72801374 -0.68403715
-0.050891458 -0.73364019 -0.67762979
-0.055664101 -0.7366202 -0.67401201
-0.057770762 -0.73780945 -0.67253234
-0.051245326 -0.74258114 -0.66779275
-0.04417764 -0.74788617 -0.66235536
-0.030067562 -0.75310671 -0.65721094
-0.018792234 -0.7573126 -0.65278211
-0.0017185445 -0.76297771 -0.64642251
0.017230945 -0.77018939 -0.63758246
0.048199056 -0.7742601 -0.63102944
0.09086103 -0.78098732 -0.61790216
0.13604068 -0.78328233 -0.60659848
0.18836858 -0.78414998 -0.59129187
0.23699146 -0.784018 -0.57371668
0.27573158 -0.78944115 -0.54841113
0.31497459 -0.79443271 -0.51929536
-0.39868532 -0.33268887 -0.85461578
-0.36792196 -0.37776743 -0.84966181
-0.34237508 -0.41535759 -0.84276769
-0.30639726 -0.45543021 -0.83588518
-0.26882598 -0.50679376 -0.81908038
-0.22888238 -0.54889615 -0.80394395
-0.19704414 -0.5903911 -0.78269532
-0.16145793 -0.61576658 -0.7712087
-0.13478791 -0.64567336 -0.75162367
-0.10265245 -0.66658886 -0.73832362
-0.076888042 -0.68675942 -0.72280684
-0.066290851 -0.69584678 -0.71512431
-0.059120556 -0.70859206 -0.70313729
-0.058025657 -0.7173525 -0.69428986
-0.058174347 -0.72329352 -0.68808591
-0.061570977 -0.73085519 -0.67974973
-0.063537991 -0.73456902 -0.67555258
-0.062236688 -0.73891618 -0.67091689
-0.053530334 -0.74277552 -0.66739721
-0.038628309 -0.74773977 -0.66286733
-0.02712971 -0.75277597 -0.65771751
-0.0096838775 -0.7580248 -0.65215384
0.0098126505 -0.76387733 -0.64528686
0.040664959 -0.76981685 -0.63696812
0.082537606 -0.77555133 -0.62586555
0.13330893 -0.77675055 -0.61553823
0.1707486 -0.77840848 -0.60409035
0.21487613 -0.77623291 -0.59269784
0.24443404 -0.78228498 -0.57295917
0.2773655 -0.78731057 -0.55064549
-0.43940932 -0.27791539 -0.85421454
-0.40982325 -0.325459 -0.85212754
-0.37641475 -0.36587523 -0.85114467
-0.35486032 -0.41037591 -0.84003915
-0.32143419 -0.46835595 -0.82299621
-0.27753743 -0.51760476 -0.80935671
-0.23802088 -0.55822159 -0.79481741
-0.20484576 -0.59286704 -0.7788112
-0.1706065 -0.62313983 -0.76327595
-0.12940734 -0.65016549 -0.74869124
-0.10880388 -0.66721129 -0.7368791
-0.087495564 -0.68093828 -0.72709531
-0.077073014 -0.69418707 -0.71565639
-0.074770651 -0.70464697 -0.70560753
-0.070542809 -0.71629066 -0.6942272
-0.072975643 -0.72536259 -0.68448789
-0.072277662 -0.73160933 -0.6778818
-0.072697707 -0.73261383 -0.67675108
-0.062904408 -0.73694186 -0.67302283
-0.04706203 -0.74210044 -0.66863451
-0.033312529 -0.74791624 -0.66295669
-0.016574339 -0.75383969 -0.65684931
0.005496612 -0.76179148 -0.64779899
0.029115212 -0.76745917 -0.64043636
0.071950269 -0.77217355 -0.63132493
0.11604343 -0.77641185 -0.6194502
0.15087374 -0.7764969 -0.61179218
0.19176692 -0.7781319 -0.59811052
0.21994478 -0.7800525 -0.58578357
0.25018749 -0.78264099 -0.56998184
-0.4755274 -0.2389327 -0.84663147
-0.44920579 -0.27514866 -0.85000434
-0.42509755 -0.3119747 -0.84968456
-0.39624546 -0.36498985 -0.84247964
-0.37238645 -0.41455802 -0.83034329
-0.32891031 -0.47467792 -0.81639383
-0.2814303 -0.52667421 -0.8021292
-0.24730418 -0.56836922 -0.78472738
-0.20830848 -0.60260432 -0.77037368
-0.16486083 -0.62969213 -0.75915001
-0.14017357 -0.64952644 -0.74730635
-0.11582497 -0.66654397 -0.73641274
-0.10403997 -0.67897484 -0.72675226
-0.094003184 -0.69104298 -0.71667496
-0.090040915 -0.70249044 -0.70597437
-0.087679631 -0.71008502 -0.69863549
-0.085739484 -0.71594874 -0.69286806
-0.086081331 -0.72208502 -0.68642788
-0.075573087 -0.72805461 -0.68134073
-0.056621475 -0.73232924 -0.67859259
-0.045472882 -0.73887506 -0.67230638
-0.026812277 -0.74649957 -0.66484547
-0.0077550331 -0.75454892 -0.65619798
0.020102026 -0.76115587 -0.6482574
0.058012314 -0.7661236 -0.64006968
0.098873045 -0.76897422 -0.6315875
0.13704407 -0.77217167 -0.62045938
0.17259067 -0.77586545 -0.60683216
0.20313893 -0.77776346 -0.5948265
0.22821382 -0.78142533 -0.58076923
-0.50958881 -0.19952212 -0.83696485
-0.48137852 -0.23903399 -0.84328967
-0.4562977 -0.28635702 -0.84249158
-0.43594743 -0.32593758 -0.83887694
-0.41234412 -0.37886384 -0.82851344
-0.37736213 -0.4352995 -0.81738128
-0.32816642 -0.4902086 -0.80746661
-0.29050423 -0.53958099 -0.79022759
-0.24068526 -0.57965495 -0.77850545
-0.19469959 -0.61267452 -0.76597781
-0.16358296 -0.63495093 -0.75503505
-0.13852248 -0.65226706 -0.74522426
-0.11706562 -0.66605222 -0.73666145
-0.10926774 -0.67713011 -0.72770556
-0.10291664 -0.68753066 -0.71882526
-0.10177052 -0.69450278 -0.71225603
-0.10174381 -0.69641422 -0.71039104
-0.099791021 -0.70256396 -0.70458898
-0.086925284 -0.71217198 -0.69660251
-0.070697611 -0.72113274 -0.68918025
-0.054330676 -0.72694772 -0.68454013
-0.034391363 -0.73795328 -0.67397492
-0.016889433 -0.74529365 -0.66652241
0.0093156676 -0.75339968 -0.65749687
0.042937388 -0.75874885 -0.64996658
0.080169116 -0.76344143 -0.64088228
0.12128307 -0.76673203 -0.63040654
0.15606397 -0.76937774 -0.61943678
0.17960419 -0.77339291 -0.60795209
0.20642559 -0.77693538 -0.59477718
-0.53703472 -0.181331 -0.82384026
-0.51556825 -0.22030444 -0.82804308
-0.48414411 -0.25827982 -0.83600001
-0.46650203 -0.29457759 -0.83402632
-0.45528379 -0.33381688 -0.82539866
-0.42462286 -0.38656525 -0.81869575
-0.38050755 -0.4413198 -0.81268127
-0.32331314 -0.49991268 -0.80346495
-0.2760402 -0.54815221 -0.78951312
-0.22900346 -0.5846695 -0.77827951
-0.18916741 -0.61858175 -0.76260889
-0.15614987 -0.64036089 -0.75203401
-0.13474509 -0.65551302 -0.74306557
-0.12336412 -0.66488822 -0.73668511
-0.11822802 -0.67367897 -0.72950585
-0.11504408 -0.68267796 -0.7216063
-0.11334557 -0.68917884 -0.71567123
-0.1065692 -0.68642722 -0.7193474
-0.096723782 -0.69491486 -0.71255726
-0.082813764 -0.70608777 -0.7032652
-0.063639476 -0.7149964 -0.69622566
-0.047855966 -0.72115366 -0.69112026
-0.03119286 -0.73166135 -0.68095424
-0.0054810403 -0.74137615 -0.67106733
0.031815999 -0.74904066 -0.66175965
0.067479319 -0.75634221 -0.65068656
0.10117985 -0.75755452 -0.64488277
0.13516873 -0.76398426 -0.63091796
0.16845303 -0.76763655 -0.61835079
0.18898652 -0.77108616 -0.60803802
-0.56822054 -0.16322562 -0.80652515
-0.54276813 -0.20085953 -0.81551101
-0.50576203 -0.23923913 -0.82883618
-0.49023123 -0.2687551 -0.82912245
-0.47469245 -0.30862534 -0.82426784
-0.45244911 -0.35094423 -0.8198341
-0.41451299 -0.40077346 -0.81704322
-0.37097098 -0.45818146 -0.80774395
-0.31177668 -0.52328203 -0.79307705
-0.2641361 -0.56120166 -0.78440093
-0.21829345 -0.59454172 -0.7738657
-0.17906163 -0.62545416 -0.75943665
-0.15081353 -0.64672238 -0.74766667
-0.1315864 -0.66019349 -0.73947926
-0.12759826 -0.66834513 -0.73282567
-0.12497276 -0.67362088 -0.72843443