# vtk DataFile Version 2.0
Grain example
ASCII
DATASET UNSTRUCTURED_GRID
POINTS 900 float
16.516546 -5.7863197 13.431029
16.726745 -5.150819 13.509402
16.928104 -4.5317169 13.596991
17.083187 -3.9622487 13.728098
17.210888 -3.3866778 13.878505
17.284886 -2.7874938 14.06065
17.331015 -2.1607673 14.25244
17.35394 -1.4395827 14.408799
17.382828 -0.74152958 14.517223
17.395975 0.032900729 14.585701
17.382 0.82320027 14.65479
17.373458 1.5917648 14.694753
17.374172 2.3909315 14.692521
17.427769 3.1996017 14.594207
17.447915 4.0250836 14.552159
17.433963 4.8877408 14.546345
17.428695 5.7376953 14.524153
17.436223 6.5268128 14.486652
17.450941 7.3000442 14.409365
17.474586 8.0207092 14.281376
17.506599 8.7179261 14.145566
17.516705 9.4525287 13.990962
17.51863 10.183323 13.839132
17.516923 10.921704 13.688444
17.515292 11.661694 13.539271
17.516423 12.394965 13.388402
17.536551 13.184545 13.186388
17.560293 13.967069 12.965282
17.607307 14.811003 12.593583
17.654953 15.651767 12.183304
15.691069 -5.7171174 14.640352
15.877373 -5.0738342 14.730941
16.042418 -4.4218422 14.824726
16.174956 -3.8238675 14.937549
16.274039 -3.2232804 15.075894
16.329856 -2.5936017 15.22966
16.35344 -1.9383681 15.403165
16.396976 -1.2301909 15.514844
16.457222 -0.49566429 15.545869
16.5126 0.31436471 15.570921
16.519119 1.142383 15.593326
16.563472 1.9066232 15.571153
16.61964 2.6932587 15.521883
16.679628 3.5109333 15.41343
16.745636 4.308324 15.28719
16.781434 5.1524862 15.211383
16.804824 5.9832658 15.14205
16.812405 6.7459012 15.063199
16.836131 7.4635533 14.932709
16.865003 8.1807976 14.791215
16.892342 8.8905249 14.640878
16.905769 9.6397446 14.467216
16.914964 10.380929 14.298585
16.915376 11.129333 14.141416
16.910965 11.87188 13.990286
16.924424 12.604494 13.820609
16.992488 13.368553 13.576528
17.056352 14.150677 13.286694
17.127524 15.003194 12.84847
17.208411 15.828825 12.401457
14.772496 -5.6285835 15.754113
14.913806 -4.9430724 15.891941
15.052531 -4.2735724 15.998161
15.177762 -3.6459782 16.11658
15.273802 -3.0262087 16.239458
15.340962 -2.3911879 16.368962
15.427101 -1.7368827 16.447254
15.474622 -1.0070539 16.51941
15.526867 -0.23212219 16.555177
15.598755 0.58687597 16.557697
15.708396 1.4233258 16.475881
15.804732 2.1867403 16.374865
15.879818 2.937937 16.295619
15.952536 3.7322833 16.149239
16.017897 4.550037 16.00297
16.07106 5.3730925 15.879748
16.123649 6.182091 15.761817
16.17709 6.903082 15.605364
16.223823 7.6274047 15.441726
16.250339 8.3530385 15.285605
16.26998 9.0849391 15.124602
16.280036 9.8388926 14.949989
16.288059 10.579043 14.778697
16.323266 11.325695 14.580386
16.378847 12.056659 14.380672
16.424922 12.772241 14.17167
16.498447 13.536556 13.917636
16.579201 14.31963 13.562094
16.670735 15.161391 13.089965
16.775754 15.971885 12.610905
13.794656 -5.5001763 16.870923
13.922513 -4.7872067 17.035397
14.038853 -4.1192931 17.164039
14.149724 -3.4783041 17.28631
14.278805 -2.8552395 17.328437
14.399388 -2.2259395 17.377002
14.473691 -1.5346131 17.451325
14.534305 -0.76369855 17.505369
14.656011 -0.013035551 17.449787
14.785591 0.76887577 17.36888
14.922241 1.5856276 17.246178
15.043658 2.3803405 17.118173
15.154852 3.1522008 17.00088
15.217114 3.9629181 16.862214
15.277933 4.7775984 16.715637
15.339435 5.5753148 16.564519
15.426087 6.3196458 16.358797
15.496232 7.0436108 16.174888
15.557607 7.7866545 15.9852
15.609548 8.5398741 15.790186
15.647245 9.2697768 15.599431
15.689995 10.018905 15.396231
15.732598 10.752041 15.197279
15.809778 11.478689 14.971125
15.878282 12.215892 14.741108
15.936235 12.946183 14.507605
16.035875 13.690621 14.201994
16.141966 14.472847 13.791877
16.249699 15.290038 13.304338
16.352586 16.098651 12.820437
12.792037 -5.4068912 17.910726
12.913248 -4.6602235 18.119809
13.043034 -3.9988427 18.203227
13.186895 -3.3536713 18.254635
13.315499 -2.7300958 18.30568
13.436035 -2.0792043 18.343084
13.540759 -1.3715311 18.373946
13.697656 -0.62578424 18.316429
13.855797 0.1353607 18.232813
13.990914 0.92552496 18.139832
14.123967 1.745736 18.019331
14.258109 2.5588779 17.875931
14.369908 3.3645367 17.752181
14.466852 4.2008261 17.577595
14.530721 5.0172632 17.427939
14.622886 5.7430122 17.195952
14.711244 6.4632516 16.962639
14.790093 7.1933158 16.751157
14.887047 7.9389907 16.516129
14.96287 8.6793254 16.299841
15.033828 9.4199949 16.076535
15.126733 10.162098 15.832311
15.219716 10.889947 15.594188
15.303493 11.629715 15.352593
15.363007 12.367998 15.110003
15.465855 13.060295 14.83739
15.602391 13.815424 14.449467
15.713152 14.596497 14.008598
15.824457 15.410672 13.523803
15.934987 16.22108 13.03457
11.771723 -5.3537618 18.890136
11.958885 -4.5924346 19.025258
12.117551 -3.9719435 19.070124
12.279075 -3.3050802 19.105624
12.401724 -2.6623838 19.161482
12.553852 -1.9921338 19.17934
12.716045 -1.2567172 19.155272
12.88799 -0.5080593 19.081541
13.052734 0.26274594 18.993274
13.204782 1.0798172 18.884812
13.33762 1.9055391 18.764186
13.460305 2.7398697 18.626593
13.579578 3.5835224 18.491981
13.672049 4.4238964 18.332609
13.788576 5.1833916 18.074682
13.918721 5.9024894 17.802079
14.029234 6.6224817 17.528317
14.129632 7.3320463 17.276237
14.230847 8.0743816 17.035519
14.359555 8.8054753 16.780383
14.460254 9.5365631 16.529099
14.574348 10.28444 16.266598
14.678348 11.018952 16.014063
14.758999 11.761519 15.751822
14.88405 12.459004 15.44356
15.022267 13.13618 15.119039
15.159529 13.89901 14.702135
15.276429 14.699622 14.213955
15.382858 15.512578 13.720768
15.491577 16.32139 13.227421
10.845572 -5.3667624 19.698472
11.039631 -4.5637848 19.866127
11.20965 -3.9475486 19.905253
11.361775 -3.2876512 19.933635
11.541973 -2.6114683 19.934793
11.701514 -1.9253771 19.947703
11.874281 -1.1587964 19.938777
12.06716 -0.38644946 19.847039
12.237482 0.39334437 19.754296
12.389073 1.2261777 19.635875
12.541787 2.0745384 19.493585
12.665479 2.9263905 19.354367
12.788531 3.7776793 19.213698
12.939577 4.5672618 18.969492
13.094804 5.301777 18.651488
13.231546 6.0334316 18.344571
13.364028 6.7684255 18.043346
13.479876 7.4579922 17.769518
13.619159 8.1749694 17.499616
13.75165 8.8961359 17.232337
13.880425 9.6268046 16.949357
13.985647 10.371418 16.689063
14.097278 11.103248 16.408897
14.253572 11.805805 16.07848
14.413529 12.497334 15.74397
14.542865 13.19686 15.388771
14.68218 13.95225 14.968481
14.807195 14.769843 14.452118
14.94121 15.597808 13.921538
15.035115 16.393551 13.394549
9.9458435 -5.3782295 20.45479
10.121714 -4.5473075 20.68836
10.323577 -3.9121896 20.701008
10.500138 -3.2493617 20.706624
10.661239 -2.5456106 20.715414
10.829596 -1.8318569 20.718533
11.005279 -1.0582279 20.703464
11.203253 -0.28860179 20.606675
11.391316 0.51250086 20.493357
11.550268 1.3549633 20.364505
11.715961 2.2217425 20.204895
11.890712 3.0699836 20.024386
12.049724 3.8864906 19.829377
12.223491 4.6442773 19.536509
12.391095 5.3959822 19.192315
12.537311 6.1479642 18.852977
12.693286 6.8743556 18.533623
12.86288 7.5674495 18.214968
13.01675 8.2621246 17.92001
13.149771 8.9889923 17.649298
13.276833 9.7179259 17.371423
13.422527 10.452721 17.062313
13.585092 11.131491 16.729817
13.752285 11.826768 16.391064
13.906691 12.524962 16.054011
14.051467 13.242979 15.664571
14.192443 14.005679 15.234752
14.321638 14.828175 14.710554
14.455276 15.647778 14.153748
14.558388 16.438018 13.56227
9.0747924 -5.3883869 21.140448
9.2764222 -4.5626689 21.376043
9.4428435 -3.8638648 21.475855
9.5998764 -3.1784712 21.499326
9.7496547 -2.4652786 21.5085
9.9292871 -1.7332096 21.505438
10.112833 -0.95558682 21.476651
10.31676 -0.18234211 21.37587
10.534839 0.61878603 21.229275
10.746003 1.4745879 21.050336
10.925587 2.3491332 20.874125
11.104881 3.1791018 20.677652
11.296788 3.9664389 20.419383
11.488146 4.7198999 20.105533
11.672147 5.4997244 19.732319
11.8552 6.2454448 19.364776
12.043174 6.9654673 19.005254
12.213805 7.6668585 18.676988
12.379886 8.3587182 18.370361
12.539054 9.077235 18.076536
12.698965 9.7845728 17.755715
12.886967 10.476539 17.3994
13.077941 11.159612 17.039817
13.248658 11.851669 16.694365
13.40081 12.551568 16.346216
13.541359 13.280947 15.94192
13.687334 14.056662 15.494173
13.82902 14.877198 14.950276
13.939483 15.672056 14.355482
14.052557 16.463053 13.761253
8.2626448 -5.3775647 21.749061
8.42712 -4.5387666 22.027509
8.5716461 -3.7972577 22.195912
8.7046856 -3.0999735 22.276391
8.8550427 -2.3516044 22.29406
9.0363574 -1.6422499 22.278358
9.2551505 -0.86205668 22.205977
9.4866195 -0.10094069 22.080894
9.7076551 0.71367037 21.936112
9.9155072 1.5894083 21.751728
10.129072 2.4723014 21.542227
10.325814 3.2631763 21.287124
10.531319 4.0312654 20.998077
10.738334 4.7964922 20.667443
10.960957 5.5737792 20.262752
11.193242 6.3250679 19.859158
11.392238 7.0589328 19.477691
11.570193 7.761837 19.143366
11.738362 8.4613808 18.828178
11.946713 9.1193513 18.463685
12.158719 9.8061038 18.092962
12.361194 10.501373 17.724506
12.549044 11.184937 17.369849
12.732895 11.881605 17.00219
12.890379 12.594486 16.618195
13.034815 13.326364 16.212727
13.170857 14.092096 15.759743
13.301857 14.885927 15.158158
13.431147 15.688715 14.543412
13.547362 16.486784 13.941674
7.4331778 -5.3564229 22.34981
7.5796485 -4.5041824 22.658849
7.7122134 -3.7206335 22.878023
7.8555615 -3.0156539 22.966907
8.0214284 -2.2650042 23.019069
8.2013288 -1.5511968 23.00052
8.4116232 -0.77186765 22.919205
8.6390694 -0.0076685812 22.795353
8.856353 0.83713226 22.636726
9.0763041 1.7102198 22.458457
9.3121559 2.5451983 22.182455
9.5365949 3.3506346 21.884347
9.7470818 4.1114739 21.572854
9.9909751 4.8629158 21.224192
10.259025 5.6368044 20.790612
10.497195 6.3927277 20.379215
10.722756 7.1384084 19.979019
10.923925 7.8412284 19.60598
11.155667 8.507636 19.215049
11.38285 9.1559749 18.824522
11.596316 9.816044 18.441968
11.813847 10.518939 18.066014
12.018983 11.210005 17.697903
12.196517 11.91035 17.323952
12.364727 12.64158 16.907694
12.525237 13.370034 16.486641
12.640362 14.107135 15.968108
12.768195 14.890789 15.371294
12.898952 15.691788 14.757194
[...]
POINT_DATA 900
VECTORS normals float
0.77775288 -0.39043397 0.49260712
0.78385501 -0.36382348 0.5031936
0.79004891 -0.33542958 0.51313713
0.78980443 -0.30282664 0.53339009
0.78593868 -0.27198934 0.55526767
0.78567665 -0.23094923 0.57391172
0.78137147 -0.18832478 0.59497261
0.77623807 -0.15008185 0.6123152
0.76425507 -0.11902293 0.63383573
0.7588875 -0.089038956 0.64510605
0.7498323 -0.058158655 0.65906683
0.74111046 -0.02812169 0.6707939
0.73370902 -0.0075380382 0.679422
0.72595275 0.0056813299 0.68772111
0.7155976 0.01740034 0.698296
0.70394047 0.026343198 0.70977028
0.69466442 0.046758352 0.71781265
0.6839202 0.068528873 0.72633116
0.67087728 0.093651316 0.7356311
0.66260619 0.11568081 0.7399804
0.65849787 0.13303286 0.74073127
0.64936578 0.14411559 0.74669591
0.63818818 0.15205572 0.75471512
0.63128256 0.15832556 0.75922022
0.61873838 0.17395623 0.76609533
0.60873952 0.19234342 0.76970137
0.59729891 0.22105378 0.77095346
0.57642779 0.25777278 0.77542517
0.55148433 0.28840451 0.78274381
0.52864187 0.32531574 0.78403281
0.75109756 -0.36805126 0.54807913
0.75107321 -0.33178875 0.57079354
0.74907417 -0.28977141 0.59575198
0.74753019 -0.26517642 0.60899924
0.73977062 -0.23114702 0.63191019
0.73880339 -0.19073563 0.64636636
0.7349756 -0.15554251 0.66001318
0.73382614 -0.12355446 0.66800711
0.72947412 -0.097570865 0.67701361
0.73019708 -0.069032075 0.67974024
0.72659453 -0.037903829 0.68602018
0.72322123 -0.010901827 0.69053038
0.71958959 0.0088571834 0.69434313
0.71435387 0.023660139 0.69938455
0.70675278 0.034721256 0.70660805
0.69637327 0.049649573 0.71596032
0.68364213 0.067883531 0.72665347
0.6713367 0.087817101 0.73593151
0.66515093 0.10954001 0.73863064
0.65988182 0.12905285 0.74020358
0.65452281 0.14325562 0.74234609
0.64021778 0.15687711 0.7520045
0.63216472 0.16340373 0.75740807
0.62138729 0.17270229 0.76423279
0.60833441 0.18537209 0.77172951
0.59515818 0.2087858 0.77601239
0.57809351 0.24532215 0.77821907
0.55819428 0.28243894 0.78015857
0.53294464 0.31255896 0.78630586
0.50530407 0.35026015 0.78866065
0.71269826 -0.33953186 0.61382352
0.70994651 -0.28832037 0.64253196
0.71983661 -0.24138679 0.65082077
0.71819814 -0.21573312 0.6615517
0.71296316 -0.20419388 0.67081174
0.7164576 -0.17039014 0.67650255
0.71439071 -0.13808608 0.68598699
0.71474437 -0.10801871 0.69099381
0.71288818 -0.075912798 0.69715686
0.71300157 -0.045103088 0.69971028
0.71294636 -0.018423786 0.7009765
0.71272729 0.0042028509 0.70142865
0.71120968 0.024825285 0.70254146
0.70622269 0.041046296 0.70679892
0.69799187 0.05538949 0.71396033
0.68814886 0.067601723 0.72241343
0.67357141 0.089270015 0.7337114
0.66397274 0.10653646 0.74012849
0.65885739 0.12530728 0.74175806
0.65191931 0.14362375 0.74456257
0.64188909 0.15871967 0.75019095
0.63215344 0.16951998 0.75607209
0.62288123 0.17687327 0.76205959
0.61136691 0.18554193 0.76928844
0.5977347 0.19912515 0.77657092
0.58509584 0.22650464 0.77869025
0.55985149 0.26473146 0.78516467
0.54051587 0.29817208 0.78672486
0.51158936 0.33400919 0.79165282
0.48916273 0.36619576 0.79159364
0.67374407 -0.31181682 0.66995462
0.68922844 -0.2517439 0.67940354
0.69238346 -0.22223715 0.6864516
0.6957289 -0.19072906 0.69251983
0.69310527 -0.17495055 0.69928348
0.69237321 -0.14915854 0.70595401
0.69427824 -0.11887928 0.70982071
0.6935648 -0.091376195 0.71457558
0.69756159 -0.068499956 0.71324301
0.69934061 -0.041296099 0.71359466
0.70084462 -0.0086605411 0.71326139
0.70072067 0.013828613 0.7133017
0.69778773 0.036344359 0.71538198
0.69474433 0.05782437 0.71692863
0.68702924 0.082690966 0.72190929
0.67397344 0.097810782 0.7322519
0.66111979 0.10786383 0.74248638
0.65294826 0.12062049 0.7477361
0.64282868 0.14261445 0.75261704
0.63240125 0.1678453 0.75623847
0.62424422 0.17745174 0.7608088
0.61862831 0.18475802 0.76365142
0.60762844 0.18863116 0.77149593
0.59766306 0.1994811 0.77653471
0.58229683 0.21792938 0.78322231
0.56161346 0.25464768 0.78723877
0.5369607 0.29538544 0.79020292
0.51570293 0.32854589 0.79126992
0.50150922 0.35521811 0.78886538
0.46793837 0.39104027 0.79254097
0.66077601 -0.29116301 0.69180862
0.66868587 -0.23726619 0.70467295
0.67378458 -0.21254892 0.70769859
0.67811751 -0.17989033 0.71259814
0.6776061 -0.15920831 0.71798516
0.67758319 -0.13979551 0.72203756
0.67963336 -0.11015178 0.7252345
0.68264969 -0.08599365 0.72566831
0.68632752 -0.058404107 0.72494378
0.68580396 -0.028711713 0.72721975
0.68463417 -0.00046638105 0.72888671
0.68624452 0.024998065 0.72694123
0.68398325 0.049597996 0.7278097
0.67936994 0.076535864 0.72979363
0.67213118 0.10244749 0.73331043
0.66060805 0.12113939 0.74089288
0.64745017 0.13077845 0.75080309
0.63421266 0.1471637 0.75902381
0.62659918 0.1637329 0.76194816
0.61624491 0.18297959 0.76600305
0.6112151 0.19093646 0.76808812
0.60452659 0.19646104 0.77197841
0.59376582 0.2059599 0.77783203
0.57567749 0.22341042 0.78656418
0.56185606 0.25222537 0.78784524
0.54573601 0.28387528 0.78840791
0.52146439 0.3144521 0.79321798
0.50008465 0.3488661 0.7925956
0.47846358 0.37354301 0.79469379
0.45647563 0.40665576 0.7913666
0.65072187 -0.28780297 0.70265959
0.65507884 -0.23513661 0.71804073
0.66123011 -0.20882189 0.72053325
0.66618188 -0.18222088 0.72318549
0.66779833 -0.15306664 0.72843393
0.67007542 -0.13523479 0.72987019
0.67285517 -0.10932481 0.73165156
0.67627945 -0.082533375 0.73200707
0.67859848 -0.050892649 0.73274419
0.67618698 -0.019090863 0.73648266
0.6734799 0.011183905 0.73912093
0.67196563 0.036649488 0.73967493
0.66851604 0.066715433 0.74069923
0.66257676 0.096836904 0.74270764
0.65794568 0.1272278 0.74224023
0.64489748 0.14644083 0.75010821
0.62986998 0.15660776 0.76074819
0.6164611 0.17368912 0.76798946
0.60647112 0.18821952 0.77250643
0.60219207 0.1958665 0.77395157
0.59690342 0.20511117 0.7756518
0.58872259 0.21412866 0.77945791
0.57667523 0.226376 0.78498381
0.55947385 0.24952495 0.7903963
0.54359256 0.27324588 0.793627
0.52462749 0.30349146 0.7953986
0.50233663 0.33651621 0.79650157
0.48056677 0.36918409 0.79546131
0.44976783 0.40492545 0.79608057
0.43062324 0.44072814 0.78760544
0.64063448 -0.28955359 0.71115834
0.64612572 -0.23553287 0.72597922
0.65247363 -0.20833062 0.72861273
0.6582911 -0.17514702 0.73210406
0.66266475 -0.1488869 0.73396738
0.66445095 -0.12813633 0.73626491
0.66474308 -0.1041262 0.73977995
0.66794866 -0.073885326 0.74053059
0.66891517 -0.043122653 0.74208687
0.66884363 -0.0063365036 0.74337611
0.66451207 0.026768941 0.74679792
0.66198432 0.052351314 0.74768717
0.65302822 0.082119607 0.75286819
0.64971795 0.1181337 0.75094009
0.64236879 0.14743699 0.75208023
0.63258733 0.17188378 0.75517497
0.62052114 0.18139059 0.76292265
0.60425651 0.19285898 0.77309733
0.59608427 0.20127841 0.77728408
0.59247563 0.2057863 0.77886111
0.58590412 0.21628005 0.78098611
0.57523219 0.22881353 0.78533579
0.56263071 0.24643298 0.7891245
0.54247957 0.2704028 0.79536045
0.52953159 0.29192668 0.79647669
0.50830403 0.32169399 0.79883665
0.48872257 0.35315482 0.79776683
0.45688264 0.39329787 0.79785653
0.42567365 0.42946292 0.79646942
0.39970256 0.4645715 0.79019693
0.61958416 -0.30374787 0.72377669
0.63283129 -0.24307838 0.73514451
0.64130425 -0.20859754 0.73838738
0.64821791 -0.17140994 0.74191117
0.65538638 -0.14629422 0.74099035
0.65788491 -0.12225281 0.74312966
0.65837791 -0.099357381 0.74610095
0.65693562 -0.066403559 0.75101675
0.65929551 -0.027234573 0.75139052
0.65654696 0.010140742 0.75421698
0.65165298 0.041104141 0.75740269
0.64486344 0.068664322 0.76120717
0.636713 0.10024445 0.76455713
0.63240019 0.13618596 0.7625768
0.62280925 0.16787059 0.76415188
0.61777659 0.18908264 0.76328228
0.60907827 0.19698854 0.76825723
0.59906863 0.20925836 0.77286979
0.59034962 0.21327051 0.77846196
0.58295326 0.22016042 0.78210926
0.57276296 0.23212282 0.78616893
0.56279255 0.24440825 0.78963862
0.54815669 0.26353328 0.79377229
0.529379 0.28852926 0.79781498
0.51476145 0.31075851 0.79903054
0.49168295 0.33882486 0.80215061
0.46357255 0.37463341 0.80296345
0.4295875 0.42093506 0.79891693
0.39038814 0.46598706 0.7940108
0.36964489 0.49655866 0.78536116
0.5863434 -0.32300171 0.74288041
0.60452059 -0.26761354 0.75029185
0.62122066 -0.21925761 0.75233702
0.63505699 -0.17791601 0.75169709
0.6428186 -0.14934376 0.7513193
0.64969507 -0.12262349 0.75023982
0.65285113 -0.091563542 0.75193186
0.65145337 -0.056438188 0.75658657
0.64834721 -0.012259276 0.76124609
0.64556931 0.023986326 0.76332491
0.63631169 0.057104974 0.76931558
0.62900841 0.085026444 0.7727347
0.61977293 0.1206144 0.77545708
0.61521431 0.15151228 0.77366361
0.60797377 0.18122916 0.77299669
0.60381694 0.20226447 0.77103449
0.59679906 0.21302611 0.77359599
0.59016036 0.2269418 0.77473103
0.58304775 0.23095817 0.77891825
0.57184675 0.23848939 0.78492936
0.56042893 0.24742345 0.79038032
0.54793101 0.2604971 0.79492948
0.53700468 0.28087076 0.79544804
0.51920107 0.30318828 0.7990664
0.50185905 0.33155287 0.79888058
0.46900414 0.36582292 0.80387107
0.43052906 0.40393238 0.80714519
0.38930659 0.45846378 0.79890634
0.35030722 0.49687624 0.79397661
0.32496483 0.53135512 0.78234238
0.55053122 -0.33630104 0.76407917
0.57256993 -0.28254392 0.76963148
0.59859241 -0.23330716 0.76632558
0.61475355 -0.19609676 0.76395296
0.62825347 -0.15570426 0.76226882
0.63789821 -0.12058653 0.7606213
0.6432443 -0.081086264 0.76135523
0.64258241 -0.049055672 0.76464461
0.6418021 0.001192804 0.76686938
0.6351743 0.03973598 0.77134601
0.62192216 0.080526622 0.77892765
0.61498816 0.10602449 0.78137595
0.60826955 0.13718363 0.78178565
0.60217254 0.16483144 0.78116505
0.59441359 0.19471276 0.78023037
0.59122734 0.21240717 0.77803176
0.58479075 0.22536436 0.77925008
0.57756786 0.24562961 0.77851234
0.57091062 0.25374176 0.78081764
0.56230916 0.25692094 0.78600257
0.55071299 0.26184446 0.79256084
0.53814342 0.27353922 0.79723143
0.52314188 0.29600081 0.7991909
0.50327363 0.32617135 0.80020491
0.47741248 0.36362825 0.79990738
0.43698019 0.40866608 0.8012742
0.39181847 0.44967233 0.80266623
0.34724968 0.48833698 0.80059019
0.31442736 0.5312775 0.78668905
0.28315543 0.55900113 0.77932069
0.51590309 -0.36615596 0.77445065
0.54070553 -0.31218742 0.78113798
0.56599662 -0.2570784 0.78329977
0.58923789 -0.21939788 0.77760098
0.60801037 -0.16790943 0.77597024
0.61961886 -0.11954907 0.77574512
0.62749183 -0.079151679 0.77458958
0.62959939 -0.029926229 0.77634337
0.6269362 0.024379473 0.77868905
0.62069442 0.062488092 0.78155849
0.61317334 0.097511722 0.78390683
0.60638677 0.12049805 0.78598684
0.59887974 0.1466541 0.7872964
0.59650715 0.17090795 0.78420003
0.58949304 0.20005012 0.78260968
0.57969183 0.2235334 0.78357527
0.56845027 0.24907312 0.78410897
0.56138708 0.26672504 0.78339154
0.55540567 0.27242344 0.78569078
0.55029307 0.27545921 0.78822571
0.53953519 0.27702227 0.79508518
0.52436574 0.29442418 0.7989712
0.50830566 0.31510622 0.80145706
0.48186025 0.35243311 0.80224785
0.44603141 0.39772606 0.80179172
0.40996704 0.43886448 0.79957801
0.35617528 0.48707556 0.79743123
0.30672308 0.51996936 0.79721566
0.27539846 0.55367118 0.7858778
0.23872161 0.588257 0.77263555
0.47616662 -0.39668856 0.78479522
0.51313517 -0.326666 0.79371382
0.54086937 -0.27726695 0.79409279
0.56409612 -0.23258358 0.79227548
0.5855114 -0.17802031 0.7908762
0.5987873 -0.1288615 0.79047359
0.61202225 -0.066977501 0.78799923
0.61294011 -0.006593106 0.79010186
0.60602639 0.046441943 0.79408762
0.60125934 0.082931137 0.79473872
0.59471589 0.1137135 0.79585316
0.59275766 0.13823669 0.79342862
0.58975109 0.15977976 0.79162117
0.58402473 0.1879232 0.78968347
0.57434979 0.21673608 0.78939711
0.56442388 0.2463259 0.78787641
0.54950505 0.26528589 0.79225476
0.54084375 0.28175559 0.79252875
0.53792554 0.29233194 0.79068208
0.53214129 0.29116039 0.79501652
0.52223754 0.29921422 0.7985855
0.51053696 0.3131613 0.80080086
0.48510943 0.34425177 0.80384051
0.44432091 0.38221673 0.81024027
0.41395439 0.43240451 0.80104189
0.36647729 0.48304004 0.79521489
0.31378833 0.52278849 0.79260903
0.28255186 0.54622632 0.78854375
0.24720693 0.57723393 0.7782607
0.219573 0.60644949 0.76420332
0.45177068 -0.40692699 0.79392297
0.48817324 -0.33679665 0.80514279
0.51196299 -0.29419682 0.8070577
0.53612476 -0.25111486 0.8059228
0.5582767 -0.18896709 0.80784811
0.57473691 -0.12259892 0.80910258
0.58946278 -0.060080199 0.8055582
0.58934867 0.011813011 0.80779242
0.58864628 0.063410953 0.80589987
0.58153192 0.10242436 0.80705011
0.57558717 0.12943407 0.80743188
0.57346641 0.15536769 0.80436134
0.57144219 0.17835967 0.80102537
0.56293955 0.20759004 0.8000034
0.5494393 0.24272036 0.7995019
0.53528765 0.27272403 0.79943026
0.5213347 0.29364021 0.80124001
0.51618179 0.30406636 0.80068721
0.51471655 0.30532224 0.80115242
0.50697054 0.31266399 0.80325718
0.50230141 0.32162825 0.80265096
0.48844517 0.33769305 0.80460221
0.45388717 0.38761036 0.80233699
0.40746882 0.42716437 0.80715535
0.36269533 0.4751482 0.80167717
0.32694344 0.5235288 0.78678179
0.28940927 0.54875605 0.7842889
0.26311422 0.56564758 0.78154573
0.22460726 0.59452526 0.77206949
0.19202873 0.63993512 0.74404839
0.41542512 -0.4274887 0.80291679
0.44011647 -0.36357353 0.8210431
0.46730678 -0.30857985 0.82849433
0.48802564 -0.26037496 0.83308815
0.51438232 -0.1926323 0.83564563
0.52968194 -0.12581339 0.83881347
0.54449188 -0.040238699 0.83780036
0.55420211 0.0223877 0.83208102
0.56132839 0.084688998 0.82324857
0.5579416 0.12521303 0.82037971
0.54933078 0.1548864 0.82112478
0.54933304 0.17840858 0.81633546
0.54654459 0.20901201 0.81092724
0.53595268 0.24337617 0.80840755
0.52197453 0.27747518 0.80656687
0.51042334 0.29688169 0.80704974
0.4931678 0.32026175 0.80883739
0.49229255 0.32706396 0.80664565
0.48645546 0.3311929 0.80850006
0.47542761 0.33726225 0.81254093
0.46699928 0.35579592 0.80951895
0.43625257 0.39262683 0.80964675
0.41698391 0.4289595 0.80132276
0.37838498 0.4688438 0.79812925
0.32782891 0.51988319 0.78882804
0.29604653 0.54872429 0.78182997
0.27426145 0.56518101 0.77804311
0.24518298 0.58731383 0.77132857
0.2050346 0.61734327 0.75950517
0.17246488 0.65638671 0.73444697
0.36510466 -0.44558907 0.8174038
0.39603632 -0.38571621 0.83329361
0.41469909 -0.32261629 0.85084863
0.43418313 -0.25933514 0.86268783
0.44149517 -0.20437322 0.8736782
0.45859698 -0.11180236 0.88158326
0.46975148 -0.0275439 0.88236891
0.49167393 0.04400971 0.86966654
0.5037232 0.10192711 0.85783087
0.51827543 0.14764221 0.84237305
0.51204376 0.18255321 0.83933635
0.51281688 0.21378808 0.83145265
0.51142701 0.24128029 0.82475829
0.49969619 0.28621423 0.81754825
0.48500946 0.31329448 0.81646335
0.47274097 0.33561348 0.81478805
0.46629867 0.34905758 0.81284953
0.46900091 0.34678138 0.81226894
0.45728826 0.35521056 0.81529927
0.44604127 0.36778003 0.81595652
0.4302137 0.3870093 0.81556114
0.398222 0.42960784 0.81046675
0.36911698 0.46901231 0.80235909
0.3449811 0.50170945 0.79326898
0.30046653 0.54622937 0.78189088
0.27450596 0.57078505 0.77385457
0.24938689 0.58658404 0.77053575
0.23047404 0.60454571 0.76249997
0.18884638 0.6364124 0.74787452
0.1580732 0.67145187 0.72399258
0.30783212 -0.44864518 0.83902139
0.33215439 -0.39125974 0.85824779
0.34870387 -0.32799743 0.87796543
0.35872198 -0.25338072 0.89839677
0.37449707 -0.1740816 0.91074011
0.37662869 -0.094723702 0.92150868
0.4018306 -0.0035866067 0.915707
0.4126808 0.060187725 0.90888503
0.43023601 0.11887876 0.89485463
0.44051067 0.17247925 0.88102285
0.45605269 0.2087459 0.8651249
0.46775492 0.2385401 0.85106049
0.46098595 0.27933992 0.84229518
0.46410907 0.30995276 0.82977831
0.45432799 0.34044305 0.82321601
0.43602896 0.36577897 0.82224357
0.4280438 0.3720013 0.82364649
0.43223286 0.37788944 0.8187639
0.41995305 0.39174697 0.8186414
0.41254649 0.40335306 0.81676906
0.38267713 0.42920305 0.81813382
0.36074088 0.45949333 0.811623
0.32866991 0.50322962 0.79920963
0.30308001 0.53829853 0.78636963
0.26549869 0.57283473 0.77548103
0.24623426 0.59181691 0.76754246
0.21656184 0.60793111 0.76388529
0.18999926 0.6313837 0.75183436
0.15990852 0.66174379 0.73247827
0.13745417 0.68473586 0.71571165
0.23120004 -0.45250399 0.86127039
0.24126705 -0.39292524 0.8873556
0.26035561 -0.32708819 0.90842076
0.27348279 -0.24271173 0.93075141
0.2772126 -0.15044439 0.94895714
0.29387231 -0.072752903 0.95307192
0.30755561 0.0066437146 0.95150691
0.33695516 0.069916611 0.93892113
0.35084315 0.12905757 0.92749837
0.36645509 0.19235879 0.91033442
0.39647836 0.23218815 0.88819681
0.40484196 0.26897561 0.87393084
0.40363612 0.31401744 0.85934331
0.41236374 0.34543453 0.8429894
0.40490384 0.37814891 0.83250002
0.39491963 0.39604063 0.82896942
0.39049837 0.40732207 0.82559055
0.38826957 0.41469602 0.82296656
0.37568193 0.43249313 0.81964186
0.36528464 0.45009708 0.81484953
0.33260284 0.48069753 0.81136011
0.30969461 0.50641277 0.80475795
0.27790027 0.54732775 0.78943257
0.25655821 0.57084989 0.77994121
0.22860035 0.60241057 0.76475054
0.20555283 0.62050784 0.75678137
0.1787434 0.64100995 0.74642952
0.14873525 0.66056061 0.73589232
0.13293488 0.6811315 0.71999181
0.10821177 0.69882508 0.70705992
0.11678944 -0.45649051 0.88202984
0.14146652 -0.39862932 0.90613569
0.1542141 -0.33201769 0.93058168
0.17378025 -0.23997543 0.95509801
0.1788114 -0.14553454 0.97306021
0.19519614 -0.04692428 0.97964105
0.20007859 0.012700891 0.97969753
0.22666557 0.078374344 0.97081419
0.25352396 0.14472973 0.95644075
0.28049685 0.20608658 0.93746992
0.31436011 0.25145987 0.91539371
0.33652045 0.29029114 0.8958153
0.35942457 0.33148876 0.87231255
0.36066812 0.38072661 0.85144921
0.3535678 0.41375831 0.83892423
0.34422603 0.43133571 0.83394121
0.33152291 0.44533717 0.83172554
0.33334777 0.46598984 0.81959303
0.31536304 0.48412895 0.81618951
0.30012173 0.50678409 0.80814407
0.27575175 0.52655899 0.80417449
0.2500094 0.56311488 0.7876528
0.2291972 0.58478953 0.77813228
0.2084917 0.60770688 0.76630513
0.18760335 0.62878699 0.75460712
0.1663399 0.64723644 0.74391937
0.13681957 0.66959995 0.73001117
0.11314628 0.68600875 0.7187419
0.094969232 0.70073258 0.70707475
0.089860554 0.70823806 0.70023134
0.005734138 -0.44879908 0.8936143
0.010485315 -0.39408466 0.91901433
0.03718655 -0.32058199 0.94649054
0.047523459 -0.2117835 0.97616047
0.069863189 -0.13600573 0.98824166
0.08507017 -0.036430733 0.99570873
0.083182522 0.034079789 0.99595142
0.11707949 0.10086047 0.98798763
0.14153907 0.15462838 0.97778155
0.17975832 0.21696038 0.95948692
0.21738832 0.26283178 0.94003286
0.24733462 0.30274728 0.92041821
0.29547524 0.35345961 0.88755883
0.30664343 0.41163048 0.85821335
0.29291805 0.45230642 0.84238822
0.2874348 0.46573644 0.83694134
0.27446765 0.4889282 0.82801976
0.26361849 0.51568869 0.81521192
0.24848521 0.53348673 0.80848439
0.23896587 0.55474984 0.79696169
0.22379243 0.57267276 0.78864622
0.19591089 0.6059879 0.77097185
0.17768987 0.62174037 0.7628009
0.16769238 0.63678453 0.75258536
0.14616721 0.65449795 0.74180023
0.12415653 0.67405279 0.72817442
0.099517496 0.68994376 0.71698945
0.087180445 0.70120688 0.70760757
0.073330089 0.71032175 0.70004694
0.067858526 0.71560022 0.69520612
-0.083251324 -0.4427367 0.89277849
-0.087914632 -0.39747489 0.91339188
-0.076540121 -0.32133476 0.94386735
-0.081996164 -0.2133426 0.97353046
-0.064592406 -0.11461432 0.99130791
-0.04548406 -0.024708727 0.99865944
-0.024618457 0.044431195 0.99870907
-0.012700198 0.10624254 0.99425914
0.022795623 0.1679134 0.98553815
0.056463609 0.21728471 0.97447382
0.11477711 0.26841945 0.95643986
0.14383775 0.31277112 0.93887429
0.19313192 0.3693354 0.90900573
0.22856245 0.43703442 0.8699196
0.23562237 0.48710817 0.84095644
0.21889822 0.5151753 0.82866035
0.21288948 0.53077167 0.82034109
0.1952339 0.55329774 0.80978104
0.20126488 0.5592763 0.80417813
0.18169176 0.58863551 0.7877159
0.17223218 0.60609545 0.77652069
0.15906258 0.62670059 0.7628535
0.14334684 0.64542732 0.75025013
0.1371153 0.65974696 0.73887302
0.12141376 0.67735908 0.72556418
0.10428747 0.69025305 0.71601316
0.083633771 0.70470568 0.70455326
0.070244981 0.71330256 0.69732712
0.060432588 0.71810965 0.69330111
0.056611476 0.71885113 0.6928551
-0.14798228 -0.42868481 0.89125225