# vtk DataFile Version 2.0
Grain example
ASCII
DATASET UNSTRUCTURED_GRID
POINTS 900 float
-20.364916 -18.597057 -9.0013472
-19.580556 -18.700508 -9.4004106
-18.730377 -18.761067 -9.8092331
-17.846788 -18.81728 -10.227719
-16.940008 -18.846767 -10.61631
-15.983405 -18.839675 -11.020571
-15.032822 -18.810958 -11.397771
-14.129291 -18.760403 -11.726452
-13.259118 -18.697374 -11.999168
-12.45845 -18.656798 -12.217017
-11.677417 -18.627739 -12.383024
-10.934013 -18.58945 -12.533189
-10.224746 -18.559089 -12.652636
-9.5068927 -18.528879 -12.771112
-8.815966 -18.498916 -12.894324
-8.1380019 -18.477839 -13.02219
-7.4551739 -18.460264 -13.139326
-6.731864 -18.438501 -13.258573
-5.9704637 -18.401703 -13.382161
-5.1699569 -18.331135 -13.502363
-4.3853434 -18.260058 -13.614728
-3.5843746 -18.176661 -13.736601
-2.842379 -18.099062 -13.844798
-2.127524 -18.059252 -13.868411
-1.4341977 -18.037387 -13.855564
-0.7957506 -18.046783 -13.778951
-0.16811293 -18.052063 -13.694353
0.44715101 -18.067561 -13.590144
1.0238214 -18.087523 -13.461421
1.5790578 -18.084906 -13.342179
-20.412557 -17.973903 -9.1844869
-19.628795 -18.051603 -9.6460717
-18.779286 -18.129012 -10.085432
-17.888614 -18.191574 -10.517719
-16.976574 -18.251925 -10.94152
-16.012268 -18.25081 -11.358612
-15.037194 -18.230409 -11.765188
-14.105687 -18.182031 -12.131053
-13.267552 -18.108913 -12.430548
-12.452196 -18.029382 -12.700315
-11.665892 -17.994919 -12.88923
-10.889609 -17.961728 -13.073573
-10.167632 -17.925682 -13.232315
-9.4552469 -17.871397 -13.39524
-8.7870862 -17.84448 -13.529119
-8.1061085 -17.81462 -13.66321
-7.3811876 -17.763415 -13.831426
-6.633116 -17.707811 -14.003942
-5.8821686 -17.651606 -14.156404
-5.0981297 -17.565795 -14.30708
-4.3143648 -17.468155 -14.452795
-3.5044017 -17.364571 -14.594162
-2.7560595 -17.294322 -14.709522
-2.0482891 -17.230281 -14.795672
-1.3885214 -17.220594 -14.773359
-0.75262816 -17.231099 -14.70657
-0.13340903 -17.243106 -14.611755
0.46957104 -17.266804 -14.515036
1.0214133 -17.265729 -14.407898
1.5684957 -17.268767 -14.290677
-20.455342 -17.321583 -9.2734239
-19.641404 -17.418739 -9.8328635
-18.802107 -17.481331 -10.320933
-17.938925 -17.557431 -10.793787
-17.01148 -17.629734 -11.243249
-16.040671 -17.65874 -11.693612
-15.065716 -17.658907 -12.116621
-14.129324 -17.607165 -12.523884
-13.287384 -17.533573 -12.835329
-12.456023 -17.454607 -13.153996
-11.662794 -17.38584 -13.406942
-10.862807 -17.314147 -13.633778
-10.123238 -17.263075 -13.827343
-9.4090133 -17.218279 -14.012245
-8.7279716 -17.17274 -14.191437
-8.0173672 -17.112542 -14.368065
-7.2839877 -17.055149 -14.538649
-6.5337827 -16.997706 -14.71562
-5.7647406 -16.89465 -14.910045
-4.9571141 -16.79022 -15.08619
-4.1793519 -16.68334 -15.247552
-3.3884107 -16.579718 -15.405421
-2.6587688 -16.509941 -15.527051
-1.9599234 -16.452368 -15.61156
-1.323018 -16.417313 -15.651548
-0.70186914 -16.424797 -15.600422
-0.10750499 -16.438788 -15.55164
0.47461396 -16.450855 -15.47863
1.0292649 -16.434702 -15.381179
1.5553913 -16.427482 -15.26957
-20.51411 -16.662939 -9.3417805
-19.680722 -16.771273 -9.9383415
-18.805564 -16.856209 -10.471019
-17.95479 -16.929101 -10.97125
-17.047324 -17.001567 -11.50835
-16.078941 -17.067846 -12.023799
-15.116822 -17.062867 -12.473115
-14.164334 -17.018614 -12.918211
-13.293255 -16.945383 -13.280595
-12.463699 -16.85759 -13.610683
-11.661986 -16.778691 -13.92044
-10.862441 -16.699725 -14.166676
-10.081014 -16.615162 -14.411686
-9.3613033 -16.544462 -14.644156
-8.6414472 -16.488191 -14.846765
-7.9140417 -16.426837 -15.045381
-7.1823513 -16.350083 -15.243596
-6.4127923 -16.264564 -15.447246
-5.6257387 -16.141775 -15.651737
-4.8203181 -16.012157 -15.855565
-4.0481562 -15.902775 -16.021022
-3.2615633 -15.801759 -16.185675
-2.5389355 -15.731167 -16.301933
-1.8579972 -15.6798 -16.39125
-1.2512983 -15.639796 -16.454446
-0.65375758 -15.631933 -16.505744
-0.075935679 -15.657849 -16.454798
0.49422278 -15.65357 -16.383096
1.0347924 -15.621409 -16.303154
1.5386701 -15.618487 -16.179761
-20.572716 -15.995461 -9.4029601
-19.744294 -16.111961 -10.011384
-18.827455 -16.222411 -10.601325
-17.952539 -16.303098 -11.130897
-17.059809 -16.392832 -11.681222
-16.129557 -16.47756 -12.252675
-15.179035 -16.468063 -12.793275
-14.211694 -16.432728 -13.311599
-13.303726 -16.350041 -13.741643
-12.467419 -16.257083 -14.076765
-11.641692 -16.158749 -14.41911
-10.832813 -16.06802 -14.736397
-10.051531 -15.989401 -14.986273
-9.3158341 -15.906878 -15.224937
-8.5856863 -15.828242 -15.464474
-7.8111362 -15.723254 -15.717213
-7.0500668 -15.629426 -15.948175
-6.2789107 -15.51588 -16.181359
-5.501076 -15.387462 -16.383167
-4.7041211 -15.270734 -16.577603
-3.9279684 -15.151002 -16.76138
-3.1485161 -15.04206 -16.934699
-2.4367673 -14.974022 -17.037019
-1.7611415 -14.92438 -17.154813
-1.1698704 -14.893603 -17.242322
-0.59649083 -14.877419 -17.303991
-0.041204898 -14.865023 -17.319904
0.50284289 -14.82801 -17.272968
1.025303 -14.821461 -17.18824
1.5420365 -14.821288 -17.071585
-20.629162 -15.297176 -9.4538393
-19.813749 -15.437714 -10.062518
-18.892665 -15.563255 -10.676268
-17.95762 -15.68334 -11.286998
-17.088222 -15.785633 -11.839686
-16.173208 -15.868121 -12.442358
-15.202444 -15.883346 -13.06286
-14.246557 -15.833937 -13.631831
-13.324452 -15.753617 -14.147141
-12.458776 -15.640507 -14.557833
-11.61136 -15.527061 -14.938711
-10.803343 -15.432797 -15.270589
-10.025744 -15.360558 -15.554203
-9.2859991 -15.281467 -15.791194
-8.5344075 -15.180202 -16.047116
-7.7454275 -15.063203 -16.324043
-6.9720523 -14.953061 -16.573974
-6.1712853 -14.81059 -16.830261
-5.389576 -14.677608 -17.057157
-4.5945427 -14.541938 -17.275691
-3.821651 -14.424159 -17.464555
-3.0398877 -14.305732 -17.660761
-2.3251967 -14.224747 -17.827792
-1.664973 -14.180561 -17.936028
-1.083227 -14.157366 -18.01237
-0.53804907 -14.116625 -18.091871
-0.00420549 -14.054655 -18.148333
0.53493044 -14.013254 -18.124848
1.0391516 -14.008443 -18.024268
1.5447049 -14.014968 -17.925055
-20.68286 -14.604933 -9.506519
-19.879859 -14.735727 -10.104491
-18.97229 -14.88165 -10.732608
-18.029034 -15.042178 -11.382936
-17.131691 -15.167691 -12.005976
-16.198953 -15.236146 -12.660567
-15.247943 -15.288094 -13.331615
-14.279766 -15.246305 -13.90974
-13.321714 -15.17049 -14.480116
-12.441528 -15.048934 -14.950644
-11.605636 -14.925505 -15.369029
-10.801714 -14.825035 -15.741574
-10.012006 -14.727658 -16.082627
-9.236128 -14.628413 -16.371391
-8.4765898 -14.527403 -16.631233
-7.6914515 -14.413266 -16.906369
-6.9165476 -14.300805 -17.173373
-6.101927 -14.148353 -17.431397
-5.2920343 -13.981164 -17.682874
-4.4815064 -13.813524 -17.934333
-3.6955998 -13.669435 -18.187982
-2.9204809 -13.540926 -18.417863
-2.211378 -13.452031 -18.578003
-1.5586027 -13.380852 -18.704814
-1.0013593 -13.324924 -18.790035
-0.45535117 -13.27085 -18.874523
0.058025178 -13.192982 -18.924143
0.57179293 -13.130096 -18.93379
1.0782433 -13.128825 -18.847993
1.5842586 -13.122518 -18.750453
-20.748687 -13.93025 -9.5533709
-19.966181 -14.049946 -10.13188
-19.085033 -14.207717 -10.765151
-18.188947 -14.374453 -11.405771
-17.220068 -14.524015 -12.151241
-16.24497 -14.608311 -12.871153
-15.295284 -14.659587 -13.543104
-14.32231 -14.652554 -14.192934
-13.336707 -14.579734 -14.793374
-12.41616 -14.47524 -15.315902
-11.564788 -14.339733 -15.749053
-10.754588 -14.212882 -16.167924
-9.9728595 -14.089444 -16.562809
-9.1900489 -13.971372 -16.915517
-8.4176533 -13.849385 -17.210604
-7.6324772 -13.723234 -17.480291
-6.8494983 -13.591839 -17.758492
-6.0210753 -13.423018 -18.021476
-5.2071778 -13.258163 -18.286911
-4.3687821 -13.092022 -18.586063
-3.5560622 -12.91382 -18.876524
-2.7744101 -12.747032 -19.143541
-2.0830858 -12.651253 -19.317008
-1.4578738 -12.55524 -19.459194
-0.90944749 -12.46595 -19.578969
-0.36811687 -12.383714 -19.670896
0.14758271 -12.297054 -19.733653
0.64292679 -12.241314 -19.740159
1.1379937 -12.192997 -19.732282
1.6453662 -12.185317 -19.640407
-20.825113 -13.23815 -9.5814659
-20.063402 -13.375475 -10.163605
-19.245075 -13.539155 -10.78746
-18.343902 -13.683373 -11.454082
-17.358512 -13.822582 -12.239252
-16.306063 -13.949268 -13.056906
-15.317594 -14.015259 -13.780707
-14.3417 -14.034807 -14.47312
-13.3686 -13.968012 -15.091905
-12.387198 -13.849735 -15.677334
-11.511031 -13.697255 -16.144172
-10.68567 -13.55266 -16.573669
-9.9036424 -13.423186 -16.963444
-9.1145759 -13.295914 -17.339096
-8.3284963 -13.15956 -17.698451
-7.5530634 -13.021237 -18.018434
-6.7657229 -12.859738 -18.327693
-5.9262856 -12.678287 -18.657162
-5.0994318 -12.501683 -18.95772
-4.2643699 -12.325511 -19.257167
-3.4448691 -12.148288 -19.553002
-2.6532745 -11.979646 -19.833469
-1.9529604 -11.816379 -20.081508
-1.369763 -11.685569 -20.262285
-0.81250368 -11.582886 -20.39477
-0.27724401 -11.454072 -20.505737
0.22715274 -11.349635 -20.58313
0.71809142 -11.296813 -20.592618
1.2101472 -11.238027 -20.587939
1.7062278 -11.190226 -20.562913
-20.889027 -12.500832 -9.576602
-20.177509 -12.647042 -10.187343
-19.379049 -12.783436 -10.827593
-18.475918 -12.91799 -11.533796
-17.477887 -13.04299 -12.326899
-16.412479 -13.154339 -13.167702
-15.350008 -13.253539 -14.002061
-14.343466 -13.302237 -14.73368
-13.355743 -13.245618 -15.410484
-12.355469 -13.121799 -16.036862
-11.463106 -12.989923 -16.551818
-10.626521 -12.842779 -16.991796
-9.8364429 -12.70708 -17.388468
-9.0336436 -12.558589 -17.794109
-8.2215507 -12.412069 -18.166542
-7.4380687 -12.268207 -18.52688
-6.6234856 -12.086163 -18.895194
-5.7868525 -11.897399 -19.267935
-4.9676245 -11.717587 -19.602382
-4.1399043 -11.532074 -19.932092
-3.3245709 -11.349037 -20.263838
-2.5340404 -11.1534 -20.585776
-1.8714473 -10.999788 -20.814526
-1.2828168 -10.84507 -21.01571
-0.72603959 -10.683797 -21.19279
-0.18364057 -10.52977 -21.325394
0.31035037 -10.427956 -21.383247
0.79422445 -10.339741 -21.438173
1.2838898 -10.270112 -21.435723
1.7799747 -10.183805 -21.429542
-20.948628 -11.744044 -9.5845354
-20.258051 -11.827352 -10.201066
-19.515614 -11.971732 -10.875534
[...]
POINT_DATA 900
VECTORS normals float
-0.48605951 -0.22909371 -0.84336364
-0.4646418 -0.27234944 -0.84257568
-0.43850044 -0.31991953 -0.8398624
-0.39690751 -0.38697553 -0.83229464
-0.36589169 -0.44531045 -0.81720369
-0.31761204 -0.50186063 -0.80452377
-0.2688153 -0.55535068 -0.78697138
-0.22711384 -0.5921431 -0.77316613
-0.18148024 -0.62032407 -0.76306157
-0.15433397 -0.64117737 -0.75171311
-0.12935966 -0.65690864 -0.74279009
-0.11944256 -0.66892335 -0.73367229
-0.11038888 -0.67902782 -0.72576547
-0.10907311 -0.6860064 -0.71937353
-0.11208062 -0.6906776 -0.71442452
-0.10767559 -0.69355388 -0.71231242
-0.095778041 -0.69970932 -0.70797841
-0.082807362 -0.70556101 -0.70379443
-0.068755327 -0.71404919 -0.69671117
-0.053752544 -0.72255618 -0.68921929
-0.042334778 -0.7266374 -0.68571558
-0.026524712 -0.73542968 -0.67708169
-0.0058395922 -0.74257617 -0.66973617
0.022487519 -0.74839492 -0.66287205
0.054498443 -0.75321198 -0.65551631
0.08546733 -0.75603583 -0.64892616
0.10747259 -0.75987061 -0.64112892
0.13875867 -0.76256356 -0.63185667
0.15726761 -0.76555993 -0.62384685
0.18294787 -0.77003978 -0.61120276
-0.52446692 -0.21366213 -0.82418623
-0.48847455 -0.2559637 -0.83419134
-0.46500564 -0.29302985 -0.83540605
-0.45152518 -0.33895182 -0.82537063
-0.40335983 -0.39873516 -0.82359645
-0.35391882 -0.4564513 -0.81632939
-0.30729505 -0.51622018 -0.79942885
-0.2570092 -0.56303009 -0.78545743
-0.21169631 -0.59761183 -0.77333354
-0.17627221 -0.62312572 -0.76199898
-0.14463397 -0.64477108 -0.7505673
-0.13025616 -0.66003788 -0.73985358
-0.12449047 -0.66726121 -0.73434638
-0.12049252 -0.67407045 -0.72877334
-0.12236796 -0.67768318 -0.72510109
-0.11606045 -0.68224517 -0.72185282
-0.10598935 -0.68722452 -0.71867149
-0.096967636 -0.69072983 -0.71658188
-0.08280255 -0.69802332 -0.71127152
-0.068608478 -0.70640682 -0.70447305
-0.055867373 -0.71051306 -0.70146278
-0.040118338 -0.71948057 -0.69335289
-0.024146574 -0.72440424 -0.68895242
0.0020049861 -0.73296233 -0.68026628
0.035823364 -0.73882712 -0.67294218
0.066254298 -0.74533174 -0.66339353
0.095270536 -0.75142182 -0.65290794
0.12372003 -0.75382382 -0.64532395
0.14741949 -0.75537679 -0.63849307
0.16486378 -0.75739092 -0.63180608
-0.54690561 -0.19361821 -0.81449754
-0.50881281 -0.23671112 -0.82769401
-0.49183916 -0.27073156 -0.82752563
-0.47469245 -0.30862534 -0.82426784
-0.4467009 -0.35915923 -0.81942843
-0.39054939 -0.42189 -0.81821758
-0.34122407 -0.48610416 -0.80453022
-0.300133 -0.53347126 -0.79077721
-0.24804122 -0.57305721 -0.78107681
-0.20249786 -0.60577698 -0.76943412
-0.17266346 -0.62872986 -0.75821243
-0.15054692 -0.64967084 -0.74516
-0.14031981 -0.66150132 -0.73669964
-0.13030225 -0.66713086 -0.73345602
-0.12887123 -0.67303281 -0.72829874
-0.12135434 -0.67630956 -0.72655247
-0.11660737 -0.67749507 -0.72622528
-0.10663097 -0.68254476 -0.72302316
-0.092641051 -0.68861759 -0.71918249
-0.078700731 -0.69490266 -0.71478422
-0.068747435 -0.69920605 -0.71160711
-0.051255605 -0.70423247 -0.70811686
-0.035417926 -0.709681 -0.70363233
-0.0087558256 -0.72012736 -0.69378666
0.019340596 -0.72586588 -0.6875643
0.050713751 -0.73618129 -0.67488163
0.081143514 -0.74309799 -0.66424476
0.10927769 -0.74830473 -0.65429231
0.13025782 -0.74918223 -0.64942967
0.15033573 -0.74912556 -0.64514344
-0.57173032 -0.16935929 -0.80277137
-0.53441357 -0.20669684 -0.81955997
-0.50652219 -0.24055257 -0.82799138
-0.50098652 -0.27628066 -0.82017163
-0.47656392 -0.32354231 -0.81743942
-0.4348023 -0.3860773 -0.81356701
-0.38446216 -0.44838026 -0.80693494
-0.34150394 -0.49731234 -0.79753087
-0.28526397 -0.54490048 -0.78848458
-0.23566433 -0.58168518 -0.77852725
-0.19973068 -0.61093834 -0.76606919
-0.1745959 -0.63396023 -0.75339943
-0.15541314 -0.65399229 -0.74036535
-0.14108423 -0.66111438 -0.73690096
-0.1367688 -0.66524808 -0.73398862
-0.12714086 -0.6718215 -0.72971986
-0.1166844 -0.67758724 -0.72612691
-0.10950496 -0.68137934 -0.72369252
-0.09444849 -0.68499301 -0.72240159
-0.087303592 -0.68781823 -0.72061374
-0.075861354 -0.69003746 -0.71978702
-0.065007271 -0.69443423 -0.71661367
-0.043548532 -0.70081763 -0.71200995
-0.023834945 -0.70763935 -0.70617168
0.0036492486 -0.7144277 -0.69969975
0.032019809 -0.72056344 -0.69264931
0.062249798 -0.72592205 -0.68495411
0.084182563 -0.7337779 -0.67415376
0.11374405 -0.73633809 -0.66698464
0.13857209 -0.73777181 -0.6606743
-0.59270861 -0.1461734 -0.79204157
-0.55760302 -0.18442229 -0.80936228
-0.52798404 -0.22244794 -0.81960342
-0.52120669 -0.25296127 -0.81507925
-0.50899954 -0.29507745 -0.80860916
-0.47095525 -0.35492316 -0.80760801
-0.42376043 -0.41203204 -0.80663294
-0.36833512 -0.47390125 -0.79984176
-0.32389477 -0.51548222 -0.79332859
-0.27866261 -0.54913513 -0.78790721
-0.24068752 -0.5772958 -0.78025578
-0.20430381 -0.61403865 -0.76237555
-0.17697287 -0.63699469 -0.75027886
-0.15534494 -0.65414365 -0.74024593
-0.14668136 -0.65767147 -0.7388862
-0.13832854 -0.66262995 -0.73606166
-0.12521003 -0.67063483 -0.73114388
-0.11402263 -0.67526366 -0.72870971
-0.10215069 -0.67713706 -0.72873221
-0.0907426 -0.68044585 -0.72715833
-0.084892586 -0.68392271 -0.72459849
-0.072597365 -0.68776264 -0.72229646
-0.055171425 -0.69606573 -0.71585516
-0.031920137 -0.70333262 -0.71014388
-0.011662451 -0.70674684 -0.7073704
0.013811944 -0.71084965 -0.70320837
0.043301928 -0.71448837 -0.69830603
0.069475573 -0.71707879 -0.69352084
0.093678371 -0.71922386 -0.68843402
0.12427812 -0.72296756 -0.67961229
-0.61039745 -0.12033877 -0.78290072
-0.58358785 -0.1547116 -0.79717598
-0.54713594 -0.19967615 -0.81287865
-0.53613228 -0.23700929 -0.81017824
-0.5316067 -0.27301844 -0.80178255
-0.50324049 -0.32437267 -0.80095654
-0.45775622 -0.37694836 -0.80521375
-0.41254943 -0.4274793 -0.80440314
-0.36065186 -0.47548616 -0.80239837
-0.32187484 -0.50865036 -0.7985433
-0.28071708 -0.54308957 -0.79136062
-0.23559329 -0.57880868 -0.78068964
-0.20671366 -0.60583521 -0.76826633
-0.17450257 -0.63574229 -0.75191794
-0.16365812 -0.64184263 -0.74916891
-0.14645949 -0.64853595 -0.74696101
-0.13327211 -0.65515312 -0.74364839
-0.12244031 -0.66244865 -0.73903326
-0.10933465 -0.66608042 -0.73782302
-0.098432573 -0.66978577 -0.73600139
-0.090492026 -0.67721441 -0.73019986
-0.0843786 -0.68232994 -0.72615845
-0.065046985 -0.68711074 -0.72363508
-0.040631947 -0.69293002 -0.71985904
-0.018377328 -0.69700978 -0.71682608
0.0085058871 -0.69899515 -0.71507583
0.03504499 -0.69641913 -0.71677907
0.05755449 -0.69756077 -0.71421037
0.08177781 -0.70068099 -0.70877256
0.1084831 -0.70433861 -0.70152586
-0.62784374 -0.10218912 -0.77160198
-0.60427521 -0.13204491 -0.78575799
-0.56839891 -0.17634225 -0.80363306
-0.55650725 -0.2195618 -0.80130662
-0.55232985 -0.25711612 -0.79298363
-0.5342135 -0.30172839 -0.78966823
-0.48962262 -0.3597197 -0.79427415
-0.4397278 -0.40520728 -0.80152761
-0.38574839 -0.45810475 -0.80083595
-0.34225463 -0.49159313 -0.80074838
-0.30845406 -0.52053692 -0.79617675
-0.2748761 -0.54971059 -0.78883547
-0.24115423 -0.57468752 -0.78203509
-0.20965322 -0.59687104 -0.77446142
-0.18724645 -0.61649494 -0.76476974
-0.17169009 -0.6263599 -0.76039186
-0.15010459 -0.63887364 -0.75452573
-0.13510271 -0.64705323 -0.75037948
-0.11931754 -0.65515614 -0.7460119
-0.10818265 -0.66022323 -0.74323738
-0.1016936 -0.66756107 -0.73757754
-0.092354288 -0.67123792 -0.73546607
-0.075250082 -0.67515174 -0.73383074
-0.049693559 -0.67677048 -0.73451499
-0.025612392 -0.67863203 -0.73403172
0.00074786385 -0.68163289 -0.73169395
0.032841464 -0.68319289 -0.72949909
0.053859202 -0.68530816 -0.72625885
0.077579367 -0.68517326 -0.72423687
0.1018758 -0.68924251 -0.71733262
-0.64343865 -0.085622726 -0.76069406
-0.62256865 -0.10847836 -0.77501015
-0.59179633 -0.15313763 -0.79140759
-0.57486994 -0.19814664 -0.79389071
-0.57139252 -0.23627504 -0.78592919
-0.548605 -0.28575879 -0.78573181
-0.51505486 -0.32564288 -0.79289041
-0.46273705 -0.3805245 -0.80067192
-0.41313423 -0.42642801 -0.80466096
-0.37187786 -0.46302867 -0.80455659
-0.3235139 -0.50090325 -0.8027669
-0.30178328 -0.52068464 -0.7986328
-0.27424311 -0.54241842 -0.79408625
-0.2448378 -0.56439924 -0.78835776
-0.21919657 -0.58569557 -0.78032914
-0.19868784 -0.59511776 -0.77868992
-0.17139173 -0.61738585 -0.76776272
-0.15231259 -0.62810985 -0.76307201
-0.1324484 -0.64057251 -0.75638897
-0.12063365 -0.64936523 -0.75084773
-0.10970764 -0.65706099 -0.7458117
-0.097687024 -0.6600378 -0.74485391
-0.077865849 -0.66216693 -0.74529985
-0.053102798 -0.66241763 -0.74725027
-0.030877262 -0.66711792 -0.74431194
-0.0025711963 -0.66813573 -0.74403497
0.024100398 -0.67183017 -0.74031303
0.041051988 -0.67158133 -0.73979271
0.071127583 -0.67561868 -0.73381215
0.094308941 -0.67501242 -0.73175409
-0.65705431 -0.072753518 -0.7503243
-0.63210896 -0.10077327 -0.76829878
-0.60948498 -0.13290837 -0.78157752
-0.59587241 -0.17120557 -0.78461756
-0.58907213 -0.21017694 -0.78026898
-0.5717108 -0.25569639 -0.77959356
-0.53446671 -0.30120448 -0.78969691
-0.48806516 -0.34821405 -0.80033704
-0.44353273 -0.39260411 -0.80569271
-0.39967266 -0.43745846 -0.80553824
-0.36639443 -0.46337716 -0.80686847
-0.3339331 -0.48603548 -0.80762503
-0.29817277 -0.51524371 -0.80350291
-0.27456343 -0.5345888 -0.79926825
-0.25518685 -0.55146428 -0.7942083
-0.22645201 -0.57120544 -0.7889511
-0.20148814 -0.58968722 -0.78209431
-0.1775954 -0.60783203 -0.77395097
-0.1526433 -0.62287585 -0.76728463
-0.13694724 -0.63489443 -0.76036473
-0.12039963 -0.64321662 -0.75615892
-0.098508441 -0.64865058 -0.75468438
-0.079582744 -0.65064372 -0.75520152
-0.057961538 -0.65278273 -0.75532454
-0.039015054 -0.653994 -0.755493
-0.009360028 -0.65692823 -0.75389502
0.019226495 -0.65624594 -0.75430206
0.033795659 -0.65653795 -0.75353552
0.058761579 -0.65537518 -0.75301424
0.086486741 -0.65612887 -0.74967656
-0.6668596 -0.068967156 -0.74198504
-0.64976957 -0.089764271 -0.75481248
-0.63011542 -0.11645043 -0.7677199
-0.61510021 -0.14930139 -0.77418397
-0.61006037 -0.18396423 -0.77070325
-0.59510024 -0.21755132 -0.77364535
-0.56327336 -0.25924075 -0.78454914
-0.51887796 -0.30938955 -0.79689634
-0.47499654 -0.36075803 -0.8026406
-0.44204744 -0.39501496 -0.80533052
-0.39692271 -0.43189709 -0.80988719
-0.36025631 -0.46580239 -0.80823482
-0.32516532 -0.4884381 -0.80975042
-0.30060726 -0.51054939 -0.80558959
-0.28423777 -0.52811887 -0.80018707
-0.25448415 -0.55069553 -0.79496682
-0.22821264 -0.57135386 -0.78833607
-0.20447999 -0.58499326 -0.78483808
-0.18061889 -0.60192768 -0.77785596
-0.15412094 -0.61567722 -0.77277959
-0.13118431 -0.62710815 -0.76780599
-0.10951352 -0.63502212 -0.76469189
-0.086292542 -0.64049406 -0.76309957
-0.060025407 -0.64637356 -0.76065641
-0.039616199 -0.64436685 -0.76368968
-0.0064158127 -0.64107331 -0.76745283
0.022110374 -0.64056716 -0.76758377
0.048405449 -0.63344856 -0.77226928
0.067451023 -0.62840232 -0.77495864
0.089015915 -0.6251818 -0.77538628
-0.68826422 -0.056622957 -0.72324698
-0.66523383 -0.081408152 -0.74218371
-0.65058929 -0.10495718 -0.75214198
-0.63435702 -0.13242512 -0.76161326
-0.62932253 -0.15706482 -0.76110696
-0.61725273 -0.18937851 -0.76363266
-0.59277407 -0.22883825 -0.77217353
-0.55633535 -0.27394012 -0.7845048
-0.51990052 -0.31603132 -0.79361682
-0.47851988 -0.35966793 -0.8010354
-0.43001813 -0.4010122 -0.80887182
-0.38609746 -0.44233441 -0.80948689
-0.34792836 -0.47246159 -0.80976904
-0.32367035 -0.49682749 -0.80523285
-0.30740386 -0.511722 -0.80227394
-0.28163419 -0.53186101 -0.7986276
-0.25281553 -0.55222502 -0.79443807
-0.21834497 -0.56982958 -0.79222454
-0.19410599 -0.5873141 -0.78573851
-0.17133084 -0.60089085 -0.78075343
-0.15141216 -0.61473099 -0.77406729
-0.11735186 -0.62606066 -0.77089337
-0.090988347 -0.62708039 -0.77362219
-0.062436978 -0.63025375 -0.77387456
-0.032969963 -0.62705373 -0.77827797
-0.004843907 -0.62201113 -0.78299341
0.023574364 -0.61863132 -0.78532767
0.059529556 -0.61426664 -0.78684988
0.095377672 -0.60876345 -0.78759771
0.11246975 -0.60603416 -0.78744724
-0.69857617 -0.04712313 -0.71398232
-0.6838929 -0.069519537 -0.72626272
-0.66414845 -0.09444744 -0.74161076
-0.64644838 -0.11911263 -0.75360246
-0.6382652 -0.13928186 -0.75711168
-0.63391929 -0.16104491 -0.75644621
-0.61100859 -0.1963346 -0.76689063
-0.5855626 -0.2366167 -0.77532508
-0.54941961 -0.28543601 -0.78527981
-0.51258471 -0.32388793 -0.79520659
-0.4621102 -0.37429271 -0.80396463
-0.41963271 -0.42107059 -0.80411936
-0.3776633 -0.45497426 -0.8064545
-0.34568947 -0.48548213 -0.80299806
-0.3230805 -0.50545348 -0.80008485
-0.29724157 -0.5246518 -0.79773927
-0.27314443 -0.53868584 -0.79700043
-0.23640828 -0.55867136 -0.79498266
-0.21525145 -0.57526886 -0.78913405
-0.19038344 -0.58843285 -0.78581227
-0.16225801 -0.59823316 -0.78472251
-0.12659828 -0.60457421 -0.78642413
-0.100083 -0.60349571 -0.79106026
-0.064565042 -0.60562334 -0.79312781
-0.026976681 -0.60355304 -0.79686635
0.0040922949 -0.59354085 -0.80479346
0.039109238 -0.59175872 -0.80516587
0.069210417 -0.58173978 -0.81042504
0.097617673 -0.57746903 -0.81055556
0.13621642 -0.56624581 -0.81290268
-0.7189739 -0.03973458 -0.69390035
-0.69349924 -0.059012602 -0.71803643
-0.67532824 -0.079558595 -0.73321361
-0.65716458 -0.10263823 -0.74672626
-0.64838969 -0.12141691 -0.7515642
-0.64202706 -0.14215732 -0.75338738
-0.62808834 -0.17266663 -0.75874322
-0.60527547 -0.20125609 -0.77015427
-0.57401229 -0.25022547 -0.77967757
-0.53915982 -0.29702598 -0.78808772
-0.49933631 -0.34727451 -0.79376549
-0.456129 -0.39793966 -0.7959839
-0.40722772 -0.43881162 -0.80100558
-0.37056404 -0.47398698 -0.79876069
-0.33876566 -0.49532388 -0.79993255
-0.30536533 -0.51379228 -0.80172907
-0.27783091 -0.53263083 -0.7994463
-0.25426866 -0.54963346 -0.79577039
-0.23042355 -0.55618339 -0.79847669
-0.20116799 -0.57415668 -0.79364699
-0.16728057 -0.5749505 -0.80090519
-0.13587551 -0.57912169 -0.80383824
-0.1014795 -0.56992279 -0.81540783
-0.066441518 -0.57125729 -0.8180774
-0.028312342 -0.56827453 -0.82235179
0.0086445957 -0.56398081 -0.82574264
0.040238164 -0.55506389 -0.8308339
0.07354133 -0.54543304 -0.83492184
0.11114985 -0.53151471 -0.83972485
0.14851703 -0.52151394 -0.84021777
-0.73097839 -0.024359014 -0.68196571
-0.70525671 -0.043405959 -0.70762201
-0.68698049 -0.060256498 -0.7241733
-0.66801584 -0.076762662 -0.74017723
-0.66049061 -0.096756736 -0.7445739
-0.65177663 -0.12263088 -0.74843095
-0.64102933 -0.14605534 -0.75349137
-0.62300121 -0.1737996 -0.76266847
-0.60238759 -0.21143115 -0.76969218
-0.57315444 -0.25408853 -0.77905905
-0.53254211 -0.31418374 -0.78593096
-0.47905962 -0.36729419 -0.79724329
-0.43198853 -0.41737778 -0.7994884
-0.39422001 -0.45702059 -0.79732225
-0.35475486 -0.48170828 -0.80131525
-0.32275997 -0.49595271 -0.80613703
-0.30042135 -0.51131127 -0.80517564
-0.27044292 -0.52902287 -0.80436026
-0.23909751 -0.54118665 -0.80619439
-0.20489209 -0.55193108 -0.80832624
-0.16691299 -0.55183356 -0.81708003
-0.13791563 -0.55201918 -0.82234671
-0.10552511 -0.55138918 -0.82754723
-0.061186465 -0.548679 -0.83379108
-0.018538204 -0.54043349 -0.84118248
0.012081642 -0.53626909 -0.8439606
0.050964752 -0.52489472 -0.84964
0.08133596 -0.51356733 -0.85418561
0.1210375 -0.4952131 -0.86029873
0.16081018 -0.48303514 -0.86070735
-0.74145907 -0.0062209543 -0.67096926
-0.72029427 -0.025443403 -0.69320184
-0.69528086 -0.042419367 -0.71748528
-0.67833389 -0.055979658 -0.73261819
-0.66860391 -0.072556854 -0.74007048
-0.6651034 -0.09746149 -0.74036391
-0.65504105 -0.12124691 -0.74580186
-0.64052053 -0.15001268 -0.7531465
-0.6248168 -0.18250495 -0.75914156
-0.60146587 -0.22589898 -0.76629528
-0.56585833 -0.27417224 -0.7775821
-0.5163112 -0.32838559 -0.79093972
-0.46872166 -0.38368713 -0.79566588
-0.41676128 -0.42714846 -0.80240528
-0.37701409 -0.45237568 -0.80821818
-0.33850822 -0.47151458 -0.81430104
-0.3136387 -0.48949153 -0.81365152
-0.29152394 -0.50146168 -0.81458577
-0.2560483 -0.51350547 -0.81899414
-0.21656895 -0.52036875 -0.82602316
-0.17379467 -0.52518414 -0.83305284
-0.13422798 -0.52799162 -0.8385748
-0.10539077 -0.52767998 -0.84287996
-0.059969368 -0.5263357 -0.84815942
-0.010498038 -0.51882122 -0.8548183
0.02302356 -0.507183 -0.8615308
0.066196604 -0.49312228 -0.86743785
0.10133369 -0.47953044 -0.87165477
0.13913515 -0.46392114 -0.87488204
0.19998751 -0.42488433 -0.88288068
-0.75072287 0.013694279 -0.66047531
-0.72769884 -0.0050910986 -0.68587789
-0.70615913 -0.019443729 -0.70778615
-0.6888532 -0.034010069 -0.72410261
-0.68385905 -0.05071811 -0.72784921
-0.68194321 -0.072960464 -0.72775698
-0.67242839 -0.10130316 -0.73319692
-0.66027254 -0.12939567 -0.7397952
-0.64390266 -0.15844001 -0.74852263
-0.6315642 -0.19118335 -0.75138245
-0.60649084 -0.23334797 -0.76007736
-0.55074101 -0.29170077 -0.7820454
-0.50651533 -0.34118532 -0.79185529
-0.46726101 -0.37970088 -0.79843246
-0.41175864 -0.41012992 -0.81378638
-0.37041994 -0.43461807 -0.82091181
-0.34313878 -0.45353094 -0.822536
-0.30110638 -0.47429567 -0.82727176
-0.27021442 -0.48827672 -0.82980119
-0.22186922 -0.49974452 -0.83727502
-0.18048989 -0.50193839 -0.84586125
-0.13659767 -0.50306412 -0.85338594
-0.098575521 -0.49966005 -0.86059439
-0.051036045 -0.49591567 -0.86686964
-0.0076845056 -0.48107815 -0.87664403
0.036964913 -0.47574017 -0.87880879
0.087296387 -0.44974603 -0.88888011
0.12952487 -0.43077105 -0.89311791
0.18789467 -0.40346708 -0.89549422
0.24077885 -0.37844147 -0.89376037
-0.75742486 0.030424056 -0.65221312
-0.73741651 0.016752412 -0.67523052
-0.72116589 0.003488626 -0.69275363
-0.70105074 -0.014249071 -0.71296902
-0.69458396 -0.034788603 -0.71857002
-0.6931694 -0.05628547 -0.71857368
-0.68525607 -0.085489291 -0.72326738
-0.67478259 -0.10822753 -0.73003784
-0.65752806 -0.13669068 -0.74092679
-0.65125484 -0.16335142 -0.74106912
-0.63306976 -0.19751111 -0.74847314
-0.59283258 -0.24387758 -0.76751108
-0.53838728 -0.30548093 -0.78537923
-0.50235721 -0.33532305 -0.79699165
-0.46322067 -0.35923528 -0.81017074
-0.41249846 -0.38960344 -0.82344045
-0.37246963 -0.42542802 -0.82478929
-0.32455812 -0.44768949 -0.83320835
-0.27125065 -0.46081563 -0.84502783
-0.22918395 -0.46760631 -0.853709
-0.18209902 -0.47135607 -0.86293882
-0.13283347 -0.45905296 -0.87842225
-0.087940774 -0.44403899 -0.89168144
-0.037912286 -0.44112653 -0.89664377
9.3336892e-07 -0.43242355 -0.9016706
0.052242906 -0.42674305 -0.9028627
0.10045776 -0.40026668 -0.91087586
0.15978943 -0.37224535 -0.91427607
0.22645233 -0.34134354 -0.91225212
0.28005661 -0.31622564 -0.90640479
-0.75924606 0.043431719 -0.64935283
-0.7427368 0.033512798 -0.6687443
-0.72510727 0.020551066 -0.68832921
-0.71368895 0.0015564958 -0.70046103
-0.70365693 -0.01664236 -0.71034495
-0.70194805 -0.044021566 -0.7108664
-0.69584906 -0.068729318 -0.71489185
-0.68548124 -0.087417988 -0.72282333
-0.67166714 -0.11151407 -0.73241236
-0.66294779 -0.13976125 -0.73550461
-0.65671548 -0.16775932 -0.73524254
-0.62356607 -0.20288725 -0.75498484
-0.57822066 -0.2546427 -0.77512448
-0.52679734 -0.29823888 -0.79595109
-0.49020841 -0.32170038 -0.81006455
-0.44530574 -0.35402297 -0.82241749
-0.40764491 -0.38660038 -0.82726403
-0.33987812 -0.42124375 -0.84085466
-0.27878948 -0.44297865 -0.85208353
-0.21652928 -0.44470626 -0.86910955
-0.16824595 -0.43780679 -0.88318657
-0.12023592 -0.41050162 -0.90389808
-0.077149504 -0.38649889 -0.91905743
-0.034519049 -0.37711055 -0.92552475
0.015929319 -0.36233054 -0.93191354
0.057154817 -0.3505846 -0.93478541
0.11834251 -0.32617304 -0.93787323
0.18032348 -0.30883097 -0.93386662
0.25029982 -0.28212709 -0.92615026
0.30671483 -0.26073038 -0.91539373
-0.76186157 0.059593642 -0.64499267
-0.74631171 0.049947138 -0.66371991
-0.73193544 0.034688994 -0.68049041
-0.71982517 0.015314201 -0.69398646
-0.71415575 -0.0085245252 -0.69993492
-0.70914383 -0.024585228 -0.70463508
-0.70371804 -0.043400003 -0.70915256
-0.69431974 -0.063093149 -0.71689563
-0.68079005 -0.085249735 -0.72750079
-0.67774651 -0.1087019 -0.72721632
-0.67007802 -0.13483317 -0.7299421
-0.65095047 -0.16008405 -0.74204891
-0.61170557 -0.20117739 -0.76507774
-0.56109082 -0.25465407 -0.78760929
-0.52472576 -0.26911495 -0.80761378
-0.48033896 -0.30725352 -0.82150457