# vtk DataFile Version 2.0
Grain example
ASCII
DATASET UNSTRUCTURED_GRID
POINTS 900 float
9.6696857 -16.986759 -1.6367498
9.810506 -16.942597 -1.0882347
9.9334455 -16.898406 -0.56635805
10.017687 -16.872822 -0.11012169
10.082253 -16.788375 0.35216143
10.131648 -16.713804 0.79397924
10.171782 -16.675566 1.2478468
10.214609 -16.648788 1.7141984
10.237156 -16.63273 2.2247138
10.251789 -16.625289 2.7433136
10.250984 -16.626732 3.2408297
10.266799 -16.615474 3.7303402
10.28191 -16.582011 4.2620583
10.242711 -16.536027 4.9143538
10.210304 -16.480581 5.5687183
10.177058 -16.402434 6.2649822
10.132299 -16.292804 6.9763451
10.079383 -16.188466 7.6857077
10.019857 -16.041161 8.4270077
9.9420086 -15.818273 9.213303
9.8824495 -15.569144 10.039201
9.8308953 -15.158822 10.98284
9.7819345 -14.552144 11.971724
9.7090913 -13.901705 12.95558
9.6449029 -13.24007 13.912381
9.5693242 -12.570284 14.853465
9.5032272 -11.891107 15.764612
9.4856897 -11.186257 16.595436
9.4562615 -10.522895 17.36945
9.4127794 -9.8767307 18.138244
8.9331511 -17.66889 -1.5239474
9.0846514 -17.616402 -0.95531369
9.2243866 -17.568278 -0.40926703
9.3289417 -17.518966 0.072112321
9.3975651 -17.416706 0.53660304
9.4773568 -17.317714 1.0004181
9.5288062 -17.260402 1.4850444
9.5519538 -17.241657 1.9778587
9.5758376 -17.232109 2.4977724
9.5893486 -17.223819 3.0265256
9.6040399 -17.211708 3.5261903
9.5990052 -17.178073 4.0578894
9.5680895 -17.128073 4.7156496
9.5407499 -17.064997 5.3999382
9.5160562 -16.983825 6.1022838
9.4710827 -16.874229 6.8163391
9.4233833 -16.759554 7.543254
9.3639488 -16.640344 8.2727279
9.2866634 -16.439552 9.018085
9.2163511 -16.2259 9.7500405
9.1472247 -15.92666 10.615441
9.0520018 -15.361946 11.600195
8.9844745 -14.750353 12.55155
8.9013701 -14.092225 13.507955
8.8284162 -13.427959 14.439122
8.7755297 -12.725253 15.340859
8.7197548 -12.037319 16.214452
8.7160566 -11.337368 17.018905
8.7073869 -10.648653 17.806366
8.6874806 -9.9841738 18.582312
8.1642209 -18.348566 -1.4539203
8.3363898 -18.299787 -0.87772087
8.4912555 -18.244899 -0.29858554
8.6037791 -18.177356 0.19673927
8.6943438 -18.057309 0.69007768
8.7773859 -17.965256 1.2022644
8.849673 -17.887753 1.71958
8.8770738 -17.85841 2.2404666
8.895364 -17.848005 2.7638744
8.9061258 -17.83292 3.2990788
8.8960954 -17.790795 3.8575365
8.8694356 -17.735144 4.5024037
8.8465661 -17.672075 5.1933522
8.8321076 -17.584201 5.9275128
8.807535 -17.46264 6.6513608
8.7636373 -17.344716 7.3802351
8.7117998 -17.223058 8.1295063
8.640702 -17.037547 8.86035
8.5629713 -16.832689 9.5951594
8.462474 -16.588498 10.328868
8.3473945 -16.121898 11.212111
8.2498333 -15.539905 12.157385
8.1577411 -14.940774 13.090595
8.0920011 -14.266971 14.018446
8.0413228 -13.569076 14.912498
7.9917673 -12.87203 15.796395
7.950664 -12.190411 16.639156
7.9385869 -11.490872 17.425213
7.9181683 -10.788629 18.180249
7.9089175 -10.089657 18.934608
7.3875466 -19.017905 -1.3916486
7.5670296 -18.963197 -0.80583458
7.7280123 -18.912702 -0.22264702
7.8529551 -18.828493 0.29959333
7.9568358 -18.721195 0.80350546
8.0561136 -18.624784 1.3449393
8.1139842 -18.559849 1.9035412
8.1692832 -18.501841 2.4598043
8.1804834 -18.463848 3.02075
8.1752306 -18.414661 3.6148259
8.1683886 -18.362857 4.2780298
8.1310105 -18.285943 4.9684052
8.1121811 -18.200051 5.7024881
8.0793049 -18.092184 6.4589533
8.0557348 -17.959587 7.1879216
8.0354785 -17.826026 7.9336256
7.9774038 -17.64319 8.6994563
7.8657505 -17.428203 9.4401052
7.7496093 -17.164595 10.165094
7.6366607 -16.807039 10.906496
7.5477661 -16.300601 11.741719
7.4481698 -15.711375 12.683152
7.371704 -15.088186 13.575907
7.3069023 -14.407241 14.464584
7.2609587 -13.716069 15.328104
7.1910914 -13.009304 16.17665
7.1502763 -12.315731 16.969228
7.1257328 -11.603301 17.733939
7.1297402 -10.910358 18.473314
7.1308624 -10.210128 19.218834
6.6272029 -19.675105 -1.3316889
6.790898 -19.634517 -0.74232819
6.9569126 -19.584455 -0.15755927
7.0763168 -19.489771 0.39020645
7.1812065 -19.39266 0.92183371
7.2759186 -19.304022 1.4881667
7.3472188 -19.237553 2.0604362
7.3661705 -19.170723 2.6567388
7.3923755 -19.086299 3.278067
7.4050128 -19.009354 3.9708742
7.3982539 -18.926778 4.6936244
7.3653667 -18.830313 5.4345166
7.336917 -18.720664 6.1911852
7.3014009 -18.587645 6.9413007
7.2669105 -18.451867 7.6683298
7.2001576 -18.270786 8.424614
7.1025418 -18.029129 9.1939344
6.9926203 -17.756408 9.9292261
6.8986491 -17.40701 10.655616
6.8153776 -16.975887 11.416362
6.7253032 -16.472621 12.217859
6.6511383 -15.841515 13.112336
6.5706166 -15.207638 13.951711
6.4784426 -14.525446 14.802351
6.4005969 -13.837691 15.640107
6.3345842 -13.140122 16.47836
6.3206885 -12.44376 17.238375
6.3224649 -11.731227 17.988222
6.318887 -11.043222 18.717366
6.3447431 -10.35017 19.435216
5.8416633 -20.333258 -1.26702
6.0137944 -20.287591 -0.67819722
6.1684721 -20.253212 -0.076909063
6.2718528 -20.163599 0.502125
6.3518993 -20.089928 1.0618498
6.4389688 -20.010896 1.6368842
6.4749848 -19.924788 2.2544486
6.5018664 -19.842839 2.8773204
6.536829 -19.734817 3.6026866
6.5620326 -19.620477 4.3601965
6.5288985 -19.488781 5.147172
6.4771718 -19.380592 5.8874996
6.4134664 -19.238407 6.6386905
6.3448648 -19.096287 7.388607
6.2906771 -18.93665 8.1382028
6.2018262 -18.686236 8.8886678
6.1006624 -18.4002 9.6476456
6.0416698 -18.061436 10.357494
5.9625248 -17.6433 11.119489
5.8856802 -17.128225 11.836627
5.7997043 -16.59245 12.582429
5.7229814 -15.977386 13.389482
5.6559081 -15.34042 14.236214
5.5721513 -14.654706 15.092626
5.5071289 -13.973827 15.923942
5.4654247 -13.283508 16.739916
5.4605651 -12.579378 17.48169
5.482839 -11.878119 18.210452
5.5145044 -11.19653 18.903398
5.5792599 -10.506928 19.58986
5.032051 -20.995688 -1.2282758
5.2136264 -20.955127 -0.61227666
5.358089 -20.934807 0.015857355
5.4668085 -20.838555 0.62543308
5.51655 -20.77163 1.2135316
5.5366417 -20.699146 1.8343332
5.5536939 -20.620435 2.4672801
5.5814971 -20.51728 3.177028
5.5951101 -20.398124 3.9342503
5.5922211 -20.233267 4.7711393
5.5681637 -20.075944 5.5901311
5.4868616 -19.911883 6.3464278
5.4028334 -19.755809 7.1063894
5.3336949 -19.594593 7.8483893
5.2576952 -19.348723 8.5829459
5.1484718 -19.060198 9.3083652
5.0721317 -18.724165 9.9959639
5.0263564 -18.294782 10.675198
4.9797125 -17.773386 11.427137
4.9069924 -17.243834 12.158745
4.8362021 -16.701964 12.879315
4.7618291 -16.11349 13.641552
4.6998164 -15.474619 14.480398
4.6415653 -14.785832 15.320095
4.5835496 -14.106096 16.132068
4.5471119 -13.425258 16.921899
4.5738004 -12.73362 17.635294
4.6251436 -12.03905 18.342742
4.6972746 -11.355186 19.023409
4.7703314 -10.660012 19.709025
4.2413226 -21.643082 -1.2036764
4.4131855 -21.619199 -0.52649107
4.5435994 -21.604656 0.1119874
4.612838 -21.503611 0.78482403
4.6256918 -21.428359 1.3912459
4.6353797 -21.351299 2.0285935
4.6671457 -21.246292 2.7438434
4.6836946 -21.13461 3.49504
4.6691701 -20.979468 4.3287018
4.6144267 -20.814428 5.1843934
4.5582552 -20.627853 6.0333189
4.4910052 -20.435954 6.8135539
4.4159567 -20.243332 7.5640035
4.3355923 -19.988897 8.2571857
4.2154528 -19.671537 8.9406172
4.1319409 -19.327287 9.591745
4.0757446 -18.924917 10.260527
4.0321377 -18.462265 10.96453
3.9931732 -17.914419 11.701755
3.9468069 -17.360176 12.442526
3.8794163 -16.813183 13.162552
3.8167548 -16.234908 13.884382
3.7717481 -15.608437 14.688177
3.7244692 -14.915704 15.501333
3.6883024 -14.235857 16.291782
3.6731723 -13.552929 17.058855
3.6890492 -12.885458 17.755347
3.7529916 -12.192885 18.439957
3.8176307 -11.501233 19.119799
3.8811436 -10.792395 19.80627
3.4393928 -22.223422 -1.1861907
3.6150576 -22.241128 -0.45234778
3.712935 -22.211266 0.24545766
3.7573451 -22.11577 0.93655446
3.781759 -22.032936 1.5855832
3.7996975 -21.932894 2.3053284
3.806506 -21.821525 3.0540929
3.7920853 -21.665135 3.8816355
3.7515743 -21.496616 4.7337583
3.7013086 -21.322638 5.5911907
3.6386282 -21.109819 6.4457831
3.5559573 -20.889326 7.2088989
3.4538282 -20.625525 7.9156847
3.3324481 -20.257954 8.5684342
3.247162 -19.894183 9.1946977
3.182076 -19.520968 9.8430093
3.147546 -19.066764 10.531391
3.1088461 -18.564355 11.232075
3.0637582 -18.018166 11.958846
3.0080743 -17.45742 12.695597
2.9613453 -16.881466 13.416137
2.9126482 -16.309363 14.115061
2.8778297 -15.712037 14.850237
2.8274558 -15.022693 15.653508
2.8007358 -14.352901 16.43017
2.7964459 -13.681868 17.173919
2.8282894 -13.013996 17.858076
2.8633785 -12.32534 18.54259
2.9231411 -11.632194 19.214845
2.9795499 -10.918608 19.907725
2.6524358 -22.784198 -1.1536214
2.8038717 -22.811207 -0.33376273
2.8939891 -22.78519 0.39684704
2.9405749 -22.6862 1.1084456
2.9639863 -22.586122 1.867861
2.944748 -22.469738 2.6232872
2.9351494 -22.324456 3.4363859
2.9040245 -22.155562 4.2798891
2.8670347 -21.983584 5.1365101
2.8181319 -21.763997 5.9801411
2.7356095 -21.521161 6.7746922
2.6614545 -21.258391 7.4813323
2.5263249 -20.856859 8.1663344
2.424166 -20.467323 8.8039491
2.3248002 -20.081079 9.4209133
2.2627892 -19.639524 10.066585
2.2329056 -19.146595 10.758798
2.1983697 -18.604407 11.464993
2.1750178 -18.04493 12.180367
2.1522731 -17.479512 12.895367
2.1316904 -16.889349 13.608255
2.1021384 -16.301505 14.317289
2.0537702 -15.725723 14.997895
2.0142183 -15.04983 15.784154
1.9798575 -14.392118 16.549035
1.9752797 -13.726596 17.257514
1.9939451 -13.062806 17.934932
2.0167863 -12.383254 18.621178
2.0515112 -11.706335 19.295667
2.1074009 -11.005547 19.984528
1.8176947 -23.333749 -1.0963132
1.9654188 -23.380397 -0.2229581
2.0675808 -23.354064 0.56530815
2.0856486 -23.246242 1.373642
2.0856604 -23.117106 2.1872699
2.0711658 -22.971888 2.9990944
2.0429264 -22.810282 3.8364559
2.0064987 -22.639965 4.6777592
1.9537634 -22.41457 5.4844055
1.891285 -22.150728 6.2727594
1.8687106 -21.839352 6.9992157
1.760095 -21.44493 7.6952178
1.6674573 -21.01712 8.3552801
1.5864791 -20.605022 8.9820509
1.5150599 -20.151538 9.6186457
1.4601861 -19.65689 10.272515
1.4218815 -19.14568 10.964197
1.3986864 -18.609611 11.648633
1.3644012 -18.053439 12.357442
1.3450101 -17.489265 13.067196
[...]
POINT_DATA 900
VECTORS normals float
0.66222018 -0.74523158 -0.078066148
0.66362445 -0.74491118 -0.068628953
0.66579462 -0.74450675 -0.049266886
0.66836502 -0.74294296 -0.036386182
0.66922453 -0.74283751 -0.018192635
0.6698049 -0.74253388 -0.0021961659
0.66788702 -0.74421832 0.0081257243
0.66894519 -0.74316274 0.014881937
0.66759798 -0.74427675 0.019106473
0.66923862 -0.74251778 0.028053767
0.6661663 -0.7448517 0.037661766
0.66607756 -0.74422147 0.049750265
0.66365431 -0.74507835 0.066492201
0.65983034 -0.74705999 0.080779298
0.65704002 -0.74747997 0.097837085
0.65234774 -0.74866559 0.11807737
0.64559128 -0.74984681 0.14471233
0.63785881 -0.74990587 0.17543468
0.62775081 -0.75311698 0.19683427
0.61181487 -0.7508209 0.24889866
0.59779459 -0.73739017 0.3144795
0.58478658 -0.71363641 0.38567827
0.56498275 -0.69190182 0.44951792
0.54731438 -0.68155832 0.48572135
0.5291224 -0.66696721 0.52458005
0.51756466 -0.65387347 0.55188433
0.51398819 -0.63852831 0.57279816
0.50754064 -0.62734478 0.59062765
0.51293159 -0.60254687 0.6114233
0.50852749 -0.57589042 0.64011719
0.65978311 -0.74707302 -0.081044156
0.65813823 -0.74995481 -0.06649702
0.65934015 -0.75026296 -0.048744806
0.66574914 -0.74564865 -0.028038754
0.6667472 -0.74522452 -0.0094125385
0.66775234 -0.74435149 0.0069040676
0.66673422 -0.74515691 0.014375589
0.66372865 -0.74778774 0.016666564
0.66232976 -0.74881288 0.024465634
0.65995412 -0.75048639 0.035081958
0.65974736 -0.7496787 0.052108258
0.65478133 -0.75285372 0.066878163
0.64929041 -0.7558102 0.084693017
0.64620661 -0.75691349 0.097462763
0.64339882 -0.75638814 0.11796159
0.63575584 -0.75868475 0.14216882
0.62856094 -0.75800516 0.17418184
0.62048429 -0.75733759 0.20356578
0.61059317 -0.75299649 0.24530036
0.59464965 -0.7456897 0.3005639
0.56469888 -0.73171836 0.38171116
0.53910057 -0.71490594 0.44528651
0.50659996 -0.71003044 0.48909432
0.49230687 -0.69376522 0.52566508
0.47145048 -0.68276281 0.55818402
0.46591298 -0.67023482 0.57767671
0.44752915 -0.66666976 0.59604454
0.46404849 -0.6426674 0.60962088
0.45385681 -0.624636 0.6354871
0.46763798 -0.58726446 0.6606324
0.65168243 -0.7542491 -0.080114302
0.65263246 -0.75511225 -0.062260429
0.65440284 -0.75468377 -0.047003584
0.65820516 -0.75229722 -0.028545626
0.66162258 -0.74981066 -0.0062886045
0.66271578 -0.74883211 0.0076334931
0.66359698 -0.74786094 0.018521931
0.65742493 -0.75304624 0.026717456
0.6575439 -0.75260785 0.03489189
0.65217406 -0.75647923 0.049073042
0.64740429 -0.75940965 0.064534289
0.64226807 -0.76152638 0.087001714
0.63807067 -0.76387698 0.096735611
0.62842932 -0.76937785 0.11460503
0.62178385 -0.77033235 0.14132555
0.61667327 -0.7684551 0.17085326
0.60959661 -0.76573864 0.20502758
0.59495395 -0.76542303 0.24527003
0.57760398 -0.75919404 0.29999676
0.54797266 -0.7492948 0.37186458
0.51177514 -0.73593277 0.44327099
0.47815245 -0.7254855 0.49501619
0.44988583 -0.71906304 0.52967074
0.43053245 -0.70908054 0.55843226
0.42099173 -0.69369483 0.58442574
0.39909992 -0.69040271 0.60337662
0.40429091 -0.67725389 0.61471622
0.39721332 -0.66117973 0.63644555
0.40483513 -0.64472581 0.64841125
0.41653453 -0.60383293 0.67962106
0.64681736 -0.75842653 -0.080103125
0.64996522 -0.75709628 -0.065957839
0.64841261 -0.76003403 -0.043696249
0.6538271 -0.75612062 -0.028137765
0.65876044 -0.75229186 -0.0095725435
0.65792481 -0.75304387 0.0077377977
0.65514114 -0.75497952 0.02821353
0.65200363 -0.75726828 0.037894859
0.6448594 -0.76234371 0.054666403
0.63919252 -0.76585715 0.069969677
0.63472671 -0.7674391 0.090328481
0.62855441 -0.77028462 0.1076149
0.61863628 -0.7756737 0.12497782
0.60945442 -0.77899476 0.14741938
0.60283785 -0.77959666 0.16975153
0.59154667 -0.77985578 0.20468878
0.57686126 -0.77818272 0.24831982
0.54593293 -0.77761639 0.31188137
0.51121574 -0.77124272 0.37926658
0.47492489 -0.75850974 0.44621668
0.43377056 -0.74624486 0.50493733
0.40568466 -0.73699223 0.54061299
0.38263848 -0.72855425 0.56815182
0.36736066 -0.72108679 0.58743509
0.3504291 -0.71277981 0.60757254
0.35039076 -0.70079938 0.62137472
0.3504203 -0.68850134 0.63495788
0.34869158 -0.67709034 0.6480454
0.3594461 -0.66098498 0.65870886
0.3735243 -0.6300963 0.68077768
0.64137539 -0.76275108 -0.082755029
0.64391345 -0.76197629 -0.069047851
0.64261144 -0.76481687 -0.04588793
0.64378047 -0.76473454 -0.02697768
0.64565213 -0.76363154 0.00044434697
0.64839216 -0.76109363 0.018002609
0.6456087 -0.76283418 0.035684931
0.63866985 -0.76760988 0.053627366
0.63290761 -0.77097702 0.070868859
0.62487659 -0.77511531 0.093410391
0.6176176 -0.77873981 0.1100582
0.60601449 -0.78418497 0.13341803
0.59185725 -0.79147832 0.15253547
0.57963922 -0.79552474 0.17651846
0.56433249 -0.79832904 0.21023698
0.53701543 -0.80103384 0.26449805
0.5020273 -0.79979835 0.32907626
0.47226001 -0.79215352 0.38660482
0.43365948 -0.77790807 0.45475102
0.39138249 -0.76451887 0.51218223
0.35818641 -0.75563774 0.54837405
0.34357561 -0.7467262 0.56952241
0.33195367 -0.73526738 0.59092186
0.31948809 -0.728412 0.60608855
0.31358878 -0.72050849 0.61848977
0.3070486 -0.71048975 0.63318676
0.30322951 -0.70138086 0.64507112
0.30644059 -0.69052292 0.65518873
0.314519 -0.67459063 0.66783627
0.32633223 -0.65416043 0.68233526
0.63554289 -0.76720558 -0.086491827
0.63791777 -0.76692766 -0.06987763
0.63522254 -0.77105086 -0.044417294
0.63585969 -0.77151458 -0.021159099
0.63310699 -0.77396569 0.012354727
0.63097685 -0.77476941 0.040007278
0.62752065 -0.77613858 0.061860619
0.62076403 -0.77997119 0.079353448
0.61075152 -0.78554161 0.099533748
0.60157744 -0.78930016 0.12292209
0.59098925 -0.79302901 0.14777246
0.57739876 -0.79927484 0.16664455
0.55909626 -0.80635002 0.19290157
0.53882316 -0.81163611 0.22564669
0.50795849 -0.81564126 0.27696118
0.46953044 -0.81699745 0.33474814
0.42621775 -0.81004279 0.40270226
0.39088555 -0.79494598 0.46397131
0.35341824 -0.77816538 0.51918608
0.3270874 -0.76525184 0.55443977
0.30420469 -0.75769059 0.57737724
0.29577654 -0.7497628 0.59192227
0.28986986 -0.74298627 0.60328009
0.27858117 -0.73462479 0.61864283
0.27456605 -0.7283237 0.6278201
0.27602932 -0.71631026 0.64086459
0.27242683 -0.70693132 0.65271107
0.27233388 -0.699744 0.66044879
0.27986235 -0.68822917 0.66934122
0.29466256 -0.66701166 0.68430214
0.6225962 -0.77798882 -0.084305144
0.6261896 -0.77703878 -0.064010322
0.62786779 -0.77774368 -0.029946576
0.6255727 -0.7801281 -0.0076781494
0.62295716 -0.78186062 0.024866474
0.61926906 -0.78312382 0.05677073
0.6119515 -0.78660106 0.082305076
0.60217267 -0.79147006 0.1047054
0.59103362 -0.79646158 0.12778194
0.57941014 -0.79982668 0.15672004
0.56640478 -0.80376141 0.18208025
0.54231783 -0.81214009 0.21522045
0.51820379 -0.81603912 0.25601757
0.477882 -0.82197895 0.30980541
0.43997943 -0.81752908 0.37157006
0.39237724 -0.81294596 0.43030102
0.35975669 -0.80183524 0.47711148
0.32232144 -0.78815769 0.52432465
0.29610706 -0.77314101 0.5608686
0.27872916 -0.7647937 0.58086198
0.26463485 -0.76033536 0.59317664
0.26031981 -0.754558 0.60239175
0.25216584 -0.74658865 0.6156442
0.24782445 -0.73955619 0.62581121
0.24294985 -0.73180726 0.63673661
0.24664472 -0.72098033 0.64757528
0.24098061 -0.71291417 0.65854517
0.24124771 -0.70469939 0.66723182
0.24707233 -0.69791598 0.67221168
0.26244395 -0.68322164 0.68141865
0.60404182 -0.79281522 -0.081101827
0.60655644 -0.79329722 -0.052619463
0.60800896 -0.7936371 -0.021569956
0.60875721 -0.79325749 0.012538808
0.60448651 -0.79551173 0.041918418
0.59789837 -0.79801621 0.075416652
0.59010084 -0.80022572 0.10686347
0.58104393 -0.80343149 0.12994536
0.56817777 -0.80680217 0.16200089
0.55211864 -0.81017796 0.19691794
0.53178544 -0.81330681 0.23608533
0.50555674 -0.81636989 0.2791999
0.46772312 -0.81802728 0.33476328
0.4224289 -0.8162806 0.39400482
0.3746257 -0.81196514 0.44762506
0.33940382 -0.801338 0.49260781
0.30332566 -0.78967181 0.53330289
0.27327276 -0.77803635 0.56566902
0.25231743 -0.76858788 0.58788485
0.23724149 -0.76413646 0.59984327
0.22524043 -0.76203964 0.60709335
0.22024565 -0.75775323 0.61424905
0.21138148 -0.75106269 0.62547799
0.20459637 -0.74627731 0.63341179
0.20838539 -0.73737947 0.64253175
0.20328886 -0.72696461 0.65589336
0.20330633 -0.71817572 0.66549994
0.20986452 -0.70710553 0.6752471
0.20981061 -0.70547444 0.67696774
0.21144132 -0.69513585 0.68707985
0.5804035 -0.81056296 -0.078226967
0.58340502 -0.81068885 -0.049215518
0.58159212 -0.81339161 -0.012029312
0.58388773 -0.81138469 0.027018651
0.57975616 -0.81237587 0.062675673
0.57601176 -0.81124155 0.10048679
0.566419 -0.81384806 0.12969524
0.55653518 -0.81420779 0.16533077
0.53921362 -0.81805142 0.20010134
0.52076608 -0.81935891 0.23969495
0.49042267 -0.81943286 0.29667387
0.43557954 -0.82246942 0.36580667
0.40045421 -0.81710759 0.4146946
0.35222349 -0.80995403 0.46894891
0.30917056 -0.80118919 0.51235675
0.28011393 -0.79131255 0.54347092
0.25375066 -0.7819333 0.56937765
0.23053355 -0.77174659 0.59267317
0.21400297 -0.76641113 0.60565395
0.19429373 -0.76390205 0.61538898
0.18620061 -0.76157205 0.62075546
0.17532844 -0.759396 0.62656018
0.17187396 -0.75474027 0.63310857
0.16063848 -0.74967605 0.64201331
0.15451304 -0.74447892 0.64952048
0.15390463 -0.73358961 0.66193628
0.15351199 -0.72323615 0.67332276
0.15658218 -0.71082911 0.68571422
0.15666411 -0.71328335 0.68314217
0.16328372 -0.70841439 0.68664946
0.5659583 -0.8212638 -0.072228616
0.56428413 -0.82465521 -0.039079544
0.56058086 -0.82809794 -0.0017028541
0.56269901 -0.82552948 0.043253845
0.55734574 -0.8257775 0.086355378
0.54993275 -0.82618073 0.12247196
0.53956549 -0.82658237 0.16009582
0.5236857 -0.82837759 0.19885637
0.50545128 -0.82805802 0.24256734
0.46984086 -0.82926656 0.30259963
0.42141069 -0.82954271 0.36643134
0.37308876 -0.8213283 0.43153748
0.32230874 -0.80955711 0.49064688
0.2849163 -0.79879383 0.52985953
0.2544046 -0.79051911 0.55709769
0.22670493 -0.78242071 0.58001958
0.20519851 -0.77469879 0.59810982
0.1877442 -0.7669229 0.61366227
0.16901614 -0.76403493 0.62264289
0.15791495 -0.76289187 0.62694407
0.1432933 -0.76098433 0.63274788
0.13693529 -0.75872417 0.63685662
0.12385766 -0.75569199 0.64310878
0.1256192 -0.75045334 0.64887565
0.10907709 -0.74482172 0.65828777
0.10976292 -0.73675532 0.6671909
0.10428975 -0.72767492 0.67794753
0.10629737 -0.7162202 0.68973147
0.10436593 -0.71622027 0.69002629
0.11118102 -0.71373248 0.69153795
0.54872057 -0.83325868 -0.067717802
0.54590018 -0.83727718 -0.03098256
0.54494319 -0.83838351 0.012247781
0.54453009 -0.83593952 0.068498933
0.53313495 -0.83720735 0.12186462
0.52443695 -0.83694504 0.15648928
0.50954163 -0.83822033 0.19430389
0.47690387 -0.84233965 0.25105101
0.44941675 -0.83861063 0.30782592
0.39630897 -0.83533309 0.38099584
0.35828478 -0.82631291 0.43455609
0.30577003 -0.81958328 0.48454921
0.26511049 -0.80236539 0.53472068
0.23960148 -0.79030397 0.56392443
0.21300154 -0.78024855 0.5880838
0.19481684 -0.77361372 0.60296618
0.173346 -0.76654682 0.61835033
0.15205476 -0.76465228 0.62624775
0.13165004 -0.75893815 0.63771557
0.12533988 -0.75845356 0.63956087
0.11457582 -0.75862285 0.64137646
0.10802824 -0.75691202 0.64452625
0.095321722 -0.75427491 0.64960229
0.086171365 -0.74929304 0.65660828
0.074113897 -0.74288337 0.66530551
0.068809548 -0.7373 0.67205205
0.067751652 -0.72784646 0.68238497
0.06797801 -0.72041301 0.69020583
0.06308319 -0.71619929 0.69503892
0.065201978 -0.71295726 0.6981695
0.52364466 -0.8497195 -0.061425118
0.51931887 -0.85427262 -0.022939203
0.51888253 -0.85434233 0.029327595
0.51551775 -0.85193283 0.091934229
0.5041448 -0.85065141 0.14909795
0.47849248 -0.85493404 0.20033156
0.44753678 -0.85555438 0.26026436
0.40792454 -0.85149525 0.32947444
0.37384997 -0.84550407 0.38125983
0.34492815 -0.83429539 0.4300881
0.28859783 -0.82404531 0.48750448
0.24667966 -0.80914263 0.53332667
0.22027623 -0.79330938 0.56757256
0.20287393 -0.78238749 0.58882255
0.18448748 -0.77323686 0.60668701
0.16687656 -0.76528278 0.6216868
0.14698633 -0.75975769 0.63337451
0.12961889 -0.75719996 0.64019306
0.11137578 -0.75614626 0.64485523
0.10233097 -0.75488776 0.64782161
0.094807318 -0.75493874 0.64890605
0.080474921 -0.75112449 0.6552372
0.06977853 -0.7482015 0.65979199
0.056665183 -0.7462313 0.66327061
0.047789565 -0.73899996 0.67200834
0.041169284 -0.73383892 0.67807487
0.039082847 -0.72850084 0.68392914
0.038977566 -0.71957559 0.69331934
0.037172791 -0.71548062 0.69764294
0.035427683 -0.7143952 0.69884503
0.49211696 -0.86870418 -0.056337722
0.49101273 -0.87104514 -0.013669613
0.48572043 -0.87208742 0.059491076
0.4766431 -0.86917349 0.13171485
0.45639366 -0.86608006 0.20398567
0.42250209 -0.86562571 0.26867102
0.38477098 -0.86196053 0.33011412
0.34715977 -0.85374084 0.38808075
0.31904913 -0.84443682 0.43027214
0.27186433 -0.82945682 0.48794587
0.23870834 -0.81510508 0.52784661
0.21086643 -0.79966478 0.56220244
0.18682957 -0.7858159 0.58956601
0.17021501 -0.77666871 0.60647553
0.15402423 -0.7650838 0.6252386
0.13658609 -0.75750651 0.6383793
0.12176262 -0.75511697 0.64418338
0.10451198 -0.75257398 0.65016125
0.095598643 -0.75213516 0.65203803
0.085299852 -0.75336287 0.65204933
0.077277393 -0.75099481 0.65577054
0.063410262 -0.7487037 0.65986507
0.048594104 -0.74367217 0.66677606
0.041985375 -0.74104737 0.67013881
0.031874579 -0.73705732 0.67507816
0.025161718 -0.73300676 0.67975582
0.024624608 -0.7268179 0.68638864
0.02339711 -0.71953407 0.69406289
0.019422864 -0.71281199 0.70108617
0.016505523 -0.71249505 0.70148298
0.45379712 -0.8894149 -0.054857135
0.4567293 -0.88954086 0.010742479
0.45186342 -0.88765427 0.088822014
0.43554306 -0.88369561 0.17141852
0.40762995 -0.87832648 0.24976073
0.3709368 -0.87129416 0.32132907
0.32752411 -0.86181464 0.38730283
0.29734933 -0.84874927 0.43727344
0.26756479 -0.83544272 0.48004639
0.23289569 -0.82075681 0.52164917
0.19799464 -0.80365595 0.5611909
0.17701779 -0.79199443 0.5843026
0.15372863 -0.78105432 0.60524512
0.13706712 -0.76839604 0.6251241
0.12327652 -0.75709667 0.64156647
0.10863786 -0.75097691 0.65133056
0.098435836 -0.74926561 0.6549133
0.091379804 -0.75019634 0.65487036
0.078755277 -0.74718926 0.65992865
0.073883476 -0.74456979 0.66344334
0.063907544 -0.74574309 0.66316142
0.050572078 -0.74371408 0.6665822
0.037825098 -0.73830001 0.67341099
0.030271504 -0.73558629 0.67675435
0.021842653 -0.73593748 0.67669706
0.015955531 -0.73171491 0.68142403
0.014372011 -0.72561237 0.68795359
0.011350423 -0.71648943 0.69750561
0.006714382 -0.71010219 0.70406661
0.00017976592 -0.71012299 0.70407763
0.41250287 -0.909616 -0.049397464
0.41537438 -0.90902065 0.033846521
0.40505492 -0.90616267 0.1216541
0.38611743 -0.89703065 0.21505659
0.36133157 -0.8856323 0.29171036
0.31519978 -0.86835748 0.38288953
0.2833222 -0.85473729 0.43491689
0.26125773 -0.83985799 0.47579717
0.22713542 -0.82837406 0.51206046
0.19539053 -0.81161914 0.55054238
0.16663671 -0.79271794 0.5863706
0.15189457 -0.78181268 0.60472885
0.13237177 -0.77509774 0.61781972
0.11559983 -0.76376415 0.63505985
0.10389871 -0.7524033 0.65045702
0.094860557 -0.74790149 0.65699683
0.090376733 -0.74595169 0.65983947
0.083994324 -0.74641568 0.660158
0.073862927 -0.74464416 0.66336215
0.064625248 -0.73877281 0.67084895
0.053792051 -0.74250297 0.66767938
0.043279013 -0.73894214 0.67237745
0.035251446 -0.73614503 0.67590519
0.029317892 -0.73119207 0.68154136
0.019571482 -0.72879343 0.68445386
0.014439174 -0.73151269 0.68167492
0.0072904104 -0.72569796 0.6879748
0.00088942548 -0.71422231 0.69991835
-0.0090356216 -0.70283978 0.7112908
-0.020090081 -0.69769343 0.7161147
0.37058949 -0.92788667 -0.041106713
0.3688359 -0.92772503 0.057326702
0.35352862 -0.9231101 0.15127875
0.33392185 -0.90507183 0.26332712
0.31207126 -0.88771955 0.3384753
0.28801036 -0.86945375 0.40137291
0.24206582 -0.84937274 0.46900969
0.21506429 -0.83277431 0.51013165
0.20023617 -0.82223673 0.53275908
0.17189505 -0.80236271 0.57154717
0.15059746 -0.78797829 0.59700135
0.13054546 -0.77542459 0.61779818
0.1130689 -0.76875481 0.6294692
0.10161927 -0.75901445 0.64309454
0.093443452 -0.74893785 0.65601861
0.086588617 -0.74283586 0.66385036
0.083746684 -0.74323834 0.66376447
0.075434823 -0.74113941 0.66709967
0.063341042 -0.73946659 0.67020674
0.055444244 -0.73973634 0.67060874
0.044135321 -0.73665888 0.67482277
0.037115266 -0.73597352 0.67599218
0.031987345 -0.73481948 0.67750804
0.027656569 -0.73093358 0.68188798
0.0200126 -0.72568451 0.6877365
0.0096968305 -0.72465554 0.68904304
-0.00095420419 -0.71779622 0.69625259
-0.010420821 -0.71064643 0.70347215
-0.022208184 -0.70596485 0.7078986
-0.037939733 -0.69352416 0.71943368
0.32592463 -0.94402627 -0.050867744
0.32576064 -0.94245426 0.075232768
0.30948835 -0.93151947 0.19101948
0.28978932 -0.91266213 0.28821863
0.26607888 -0.88830122 0.37433004
0.24376801 -0.86207519 0.44430116
0.2199148 -0.84370829 0.48968746
0.19597689 -0.82499165 0.53007719
0.17177523 -0.81358437 0.55549414
0.15220722 -0.79644922 0.58523637
0.13273033 -0.78297539 0.60772708
0.11577498 -0.76876712 0.62896206
0.10552567 -0.7629294 0.63781115
0.097004178 -0.75305188 0.65077112
0.086412011 -0.74603979 0.66027085
0.083230909 -0.74196245 0.66525509
0.077330105 -0.74050597 0.66758592
0.065259299 -0.73852839 0.67105666
0.052763829 -0.73524156 0.67574834
0.047053319 -0.73631588 0.67499993
0.038194182 -0.7340332 0.67803869
0.031904902 -0.73195369 0.68060699
0.027670782 -0.72923629 0.68370224
0.018881551 -0.72668358 0.68671279
0.0054967385 -0.72219629 0.69166632
-0.0047387723 -0.71844891 0.69556359
-0.02067989 -0.71267491 0.70118957
-0.033345749 -0.70363197 0.70978173
-0.045719133 -0.69781336 0.71481905
-0.060631597 -0.68433797 0.72663977
0.28907989 -0.95657499 -0.037377833
0.29177592 -0.95242063 0.088100871
0.27989182 -0.93665306 0.21057446
0.2546584 -0.91678119 0.30767084
0.23112202 -0.89062309 0.3916288
0.21140664 -0.86022951 0.4640177
0.19334621 -0.83898698 0.50864339
0.17257415 -0.81916856 0.54697444
0.15398713 -0.80465453 0.57342746
0.13299458 -0.79146184 0.59657405
0.11790163 -0.77734728 0.61792427
0.10459234 -0.76284235 0.63806895
0.096608798 -0.75638907 0.64694846
0.088319441 -0.74802572 0.65776683
0.084046902 -0.74326215 0.66369985
0.076746474 -0.73980054 0.66843485
0.067437846 -0.73692721 0.67259975
0.053699412 -0.73314301 0.6779511
0.043649749 -0.73251158 0.67935373
0.035631846 -0.73338763 0.67887624
0.028935225 -0.73361631 0.67894761
0.025185336 -0.73068171 0.68225358
0.017223364 -0.72583855 0.68764944
0.0085173466 -0.72254366 0.69127282
-0.0075805489 -0.71523943 0.69883839
-0.022943708 -0.71217565 0.70162627
-0.038676544 -0.70719872 0.70595615
-0.054110288 -0.69672262 0.71529691
-0.072404595 -0.687921 0.72216499
-0.10574408 -0.66311986 0.74100624
0.26130208 -0.96381458 -0.052751124
0.26848196 -0.95943791 0.086001934
0.25349564 -0.94324287 0.21455265
0.23252841 -0.92109756 0.31226563
0.20435419 -0.89139668 0.4045384
0.18945975 -0.86031239 0.47325215
0.16822237 -0.83431055 0.52500203
0.14936004 -0.81287781 0.56295759
0.12945633 -0.79852651 0.58787454
0.11545347 -0.78552819 0.60796049
0.1032198 -0.77150129 0.62779887
0.092374004 -0.75874905 0.64479991
0.085783008 -0.75191244 0.65365814
0.079256842 -0.74654056 0.66060241
0.074320193 -0.74076606 0.66763924
0.068958262 -0.73469953 0.67487877
0.057133916 -0.73202105 0.67888209
0.043634752 -0.72707688 0.68516802
0.03474665 -0.72792662 0.68477405
0.027286356 -0.73147328 0.68132393
0.019863101 -0.73079671 0.68230611
0.015757683 -0.72720023 0.6862445
0.0067652189 -0.72097235 0.69293081
-0.0040481922 -0.71608282 0.69800359
-0.018026178 -0.70876257 0.70521675
-0.034820773 -0.70224942 0.71107894
-0.053642785 -0.69720429 0.71486267
-0.075791972 -0.68602769 0.72361702
-0.10177042 -0.67019287 0.73517637
-0.138949 -0.63896259 0.75658442
0.239931 -0.96838621 -0.068273489
0.24750239 -0.96564713 0.079171859
0.23093746 -0.94819323 0.2181685
0.21400692 -0.92281611 0.32033023
0.18040232 -0.8918816 0.41473149
0.16095493 -0.8567711 0.4899355
0.14271912 -0.83094937 0.53773079
0.12958264 -0.80752926 0.5754171
0.11169097 -0.79117991 0.60129816
0.097611923 -0.78042341 0.61758498
0.089145516 -0.76889052 0.63313541