# vtk DataFile Version 2.0
Grain example
ASCII
DATASET UNSTRUCTURED_GRID
POINTS 900 float
-3.2953822 19.858477 -9.4584941
-2.8084652 20.021669 -9.5611296
-2.3140988 20.176244 -9.6774219
-1.8110753 20.307164 -9.8021266
-1.3195101 20.438791 -9.9515408
-0.82546704 20.555093 -10.120819
-0.28494524 20.647769 -10.253437
0.33035522 20.715176 -10.393359
1.0404833 20.718192 -10.493931
1.8090952 20.71103 -10.579569
2.6438291 20.702256 -10.664097
3.4836834 20.691307 -10.750375
4.3445114 20.682968 -10.814048
5.1898934 20.684478 -10.826695
6.0127488 20.692393 -10.828637
6.7306174 20.72509 -10.775858
7.4148148 20.757341 -10.730132
8.098366 20.753803 -10.698794
8.7751264 20.750569 -10.662682
9.4889443 20.735752 -10.610613
10.247618 20.724321 -10.530042
11.002869 20.718109 -10.43559
11.900521 20.683302 -10.338683
12.824321 20.650401 -10.230499
13.756429 20.616922 -10.12796
14.775957 20.522271 -9.9673229
15.875099 20.399894 -9.6768062
16.931852 20.349 -9.3900209
17.979161 20.29895 -9.0644218
19.041243 20.226493 -8.6633912
-3.398219 19.055481 -10.760964
-2.9192651 19.17184 -10.902759
-2.425286 19.273385 -11.041683
-1.913293 19.40024 -11.144781
-1.4159046 19.526554 -11.236478
-0.87263539 19.646104 -11.282655
-0.28701819 19.731712 -11.360726
0.39724662 19.770749 -11.451808
1.115139 19.784739 -11.536019
1.8742656 19.774863 -11.612007
2.6850559 19.753947 -11.68344
3.5428516 19.741641 -11.749227
4.3938471 19.759061 -11.75674
5.2387043 19.797322 -11.722467
6.05818 19.829742 -11.680014
6.7937189 19.870401 -11.59096
7.4959261 19.884411 -11.525043
8.187003 19.891584 -11.476913
8.8752202 19.88764 -11.41609
9.5764585 19.892654 -11.340902
10.325792 19.900728 -11.239324
11.067572 19.890151 -11.14697
11.926822 19.871655 -11.036933
12.852698 19.826098 -10.934563
13.825916 19.765643 -10.820754
14.86011 19.686746 -10.571994
15.977549 19.57113 -10.236386
17.073208 19.441741 -9.8714544
18.122971 19.361955 -9.5031472
19.16285 19.306457 -9.069102
-3.4149226 18.167938 -11.921085
-2.9192442 18.272527 -12.047879
-2.4315082 18.367645 -12.167901
-1.9353737 18.473599 -12.284114
-1.40671 18.592612 -12.318891
-0.84811135 18.698262 -12.355143
-0.24408053 18.756459 -12.429048
0.45764333 18.801511 -12.506283
1.1894481 18.824319 -12.59295
1.9330047 18.828645 -12.670821
2.7356624 18.836527 -12.673963
3.5722308 18.845123 -12.670484
4.4196056 18.887345 -12.625562
5.265585 18.927435 -12.585719
6.0823329 18.950025 -12.515604
6.8525466 18.993393 -12.406106
7.5660603 19.033107 -12.299739
8.2781362 19.044631 -12.206237
8.9642861 19.056474 -12.126293
9.6636356 19.072376 -12.043755
10.403841 19.067943 -11.956069
11.154624 19.060678 -11.857285
11.976542 19.046688 -11.739986
12.904979 18.987186 -11.626278
13.898508 18.937535 -11.440139
14.95182 18.84485 -11.176245
16.064999 18.723375 -10.815605
17.144641 18.60844 -10.371028
18.218954 18.464097 -9.8619607
19.183414 18.449009 -9.3775036
-3.3982139 17.240136 -13.047509
-2.9011876 17.311457 -13.188497
-2.4204455 17.416557 -13.284282
-1.9156977 17.521464 -13.332622
-1.3812838 17.628815 -13.393186
-0.80484275 17.721957 -13.443071
-0.17374755 17.781962 -13.494076
0.51552109 17.821542 -13.548682
1.2386592 17.897993 -13.565828
1.9711452 17.942511 -13.600332
2.7715678 17.965421 -13.59165
3.5973806 17.999307 -13.522736
4.4338908 18.019736 -13.473444
5.2874269 18.036645 -13.417212
6.0903843 18.0879 -13.298895
6.8727215 18.148267 -13.165717
7.640165 18.190239 -13.028396
8.360383 18.212593 -12.926821
9.0494704 18.219814 -12.844676
9.7521038 18.22696 -12.764412
10.487389 18.229453 -12.67149
11.239724 18.221949 -12.573637
12.068022 18.17327 -12.460717
12.944142 18.157765 -12.268364
13.975317 18.088535 -12.059113
15.027809 17.997115 -11.746941
16.097445 17.905429 -11.333278
17.139776 17.794483 -10.832096
18.17875 17.700752 -10.214457
19.170633 17.615275 -9.6021347
-3.3802153 16.349415 -14.153108
-2.8767182 16.414296 -14.262263
-2.3877012 16.481054 -14.329828
-1.8586006 16.564068 -14.399958
-1.3263529 16.634784 -14.460751
-0.73422715 16.697459 -14.501532
-0.12105881 16.780069 -14.515855
0.55590202 16.867507 -14.51716
1.2710394 16.94262 -14.531144
2.0037249 17.022995 -14.542849
2.7983761 17.07564 -14.49296
3.619703 17.11526 -14.385425
4.4503841 17.159157 -14.264497
5.2937073 17.19969 -14.174226
6.0978159 17.253941 -14.03518
6.8958125 17.309828 -13.884986
7.6730764 17.356028 -13.742716
8.4364379 17.387764 -13.617059
9.1472137 17.402353 -13.517359
9.8457971 17.399866 -13.441214
10.572089 17.405562 -13.352774
11.340677 17.381232 -13.24291
12.155932 17.362626 -13.075535
13.032241 17.3232 -12.876887
14.019452 17.273398 -12.604457
15.047141 17.201516 -12.227198
16.070734 17.129748 -11.765561
17.077582 17.053967 -11.189888
18.11674 16.963863 -10.526969
19.121069 16.838085 -9.8693482
-3.3325036 15.469448 -15.160765
-2.8257465 15.538978 -15.262514
-2.3175778 15.576451 -15.363364
-1.790037 15.624647 -15.419618
-1.2531831 15.686407 -15.450905
-0.68072496 15.742585 -15.474923
-0.064172988 15.803259 -15.499432
0.60108394 15.87559 -15.506168
1.3191006 15.94744 -15.49884
2.0336916 16.015168 -15.489115
2.8089314 16.116763 -15.365378
3.6335871 16.205936 -15.217813
4.4657853 16.278115 -15.08416
5.2919376 16.326559 -14.939741
6.1039728 16.397067 -14.77318
6.9101529 16.455349 -14.615074
7.7014658 16.507133 -14.464147
8.4932722 16.545894 -14.325646
9.2315998 16.571036 -14.207642
9.9420605 16.5782 -14.116943
10.672497 16.564232 -14.021059
11.432942 16.556106 -13.855362
12.233759 16.540411 -13.647414
13.091275 16.521594 -13.413614
14.01549 16.493537 -13.049723
15.015393 16.454415 -12.617724
15.993451 16.415003 -12.120298
17.014228 16.321804 -11.473313
18.055822 16.21465 -10.796008
19.06848 16.075611 -10.11571
-3.2661783 14.600681 -16.10475
-2.7582891 14.690783 -16.177128
-2.2562441 14.738285 -16.267673
-1.7208081 14.750962 -16.364784
-1.1773398 14.768394 -16.419972
-0.59810854 14.790039 -16.452884
0.0037817494 14.841698 -16.465028
0.65878156 14.876807 -16.457264
1.3581167 14.943835 -16.427356
2.0644177 15.030568 -16.364348
2.8260018 15.13183 -16.242335
3.6408279 15.225528 -16.095813
4.4857201 15.298385 -15.939689
5.3072918 15.37847 -15.748613
6.103824 15.47034 -15.545998
6.9155964 15.562611 -15.367339
7.7155867 15.634875 -15.201614
8.5243996 15.687628 -15.048362
9.2994504 15.73078 -14.909689
10.055269 15.731435 -14.789606
10.76408 15.741039 -14.610405
11.506876 15.734056 -14.41635
12.273266 15.732677 -14.171906
13.087366 15.749284 -13.857949
14.020948 15.738826 -13.444463
14.91616 15.738512 -12.987577
15.918158 15.68415 -12.412352
16.947394 15.593653 -11.75795
17.998829 15.459104 -11.045669
19.009682 15.314087 -10.358347
-3.2306402 13.802378 -16.949433
-2.6935386 13.876896 -17.040872
-2.1777173 13.898566 -17.141579
-1.625235 13.889325 -17.251448
-1.0851055 13.892354 -17.329786
-0.52047368 13.886775 -17.368203
0.07753489 13.883315 -17.372302
0.71617094 13.906612 -17.36097
1.3986156 13.951441 -17.344211
2.098112 14.049006 -17.248756
2.8416846 14.1452 -17.11868
3.6515584 14.233065 -16.966999
4.5036868 14.307399 -16.799347
5.3182759 14.388425 -16.591745
6.1043575 14.48555 -16.370041
6.9090943 14.592849 -16.155621
7.7160982 14.692498 -15.968199
8.5317943 14.78521 -15.792884
9.3361073 14.860638 -15.60081
10.116412 14.909171 -15.365288
10.829598 14.923061 -15.1527
11.53801 14.925002 -14.917058
12.252149 14.96952 -14.612111
13.077831 15.003908 -14.258525
13.969726 15.011747 -13.806912
14.851864 15.00979 -13.32243
15.853883 14.954911 -12.697864
16.88232 14.831875 -12.011953
17.936147 14.692094 -11.296487
18.966368 14.548458 -10.576049
-3.1619036 12.97845 -17.78778
-2.6187982 13.049861 -17.908229
-2.0845649 13.053955 -17.98662
-1.5336633 13.04458 -18.071769
-0.98445001 13.034238 -18.141504
-0.42419007 13.004841 -18.198318
0.16935895 12.975319 -18.249288
0.7901748 12.957346 -18.263855
1.4406882 12.998218 -18.217056
2.1418959 13.071905 -18.129652
2.8816846 13.146328 -18.000505
3.6719866 13.223063 -17.838931
4.5161302 13.296364 -17.664346
5.3251793 13.388145 -17.446543
6.1166588 13.492742 -17.215601
6.9090301 13.593812 -16.990118
7.6976298 13.713838 -16.759469
8.5165363 13.819796 -16.517688
9.3201537 13.914289 -16.229185
10.111139 14.005507 -15.928153
10.857771 14.091672 -15.646271
11.523323 14.159731 -15.351903
12.219017 14.221065 -15.032892
13.017901 14.267908 -14.622296
13.904257 14.279729 -14.137758
14.793298 14.280714 -13.644929
15.796995 14.202301 -12.966679
16.820038 14.074359 -12.255801
17.881293 13.937268 -11.51585
18.940638 13.791263 -10.749717
-3.0972775 12.134806 -18.594149
-2.5341869 12.199097 -18.69219
-1.9966981 12.205273 -18.797383
-1.4391981 12.195592 -18.884105
-0.88397351 12.176163 -18.949691
-0.31693662 12.138179 -19.00849
0.27776938 12.09235 -19.070283
0.88321127 12.070163 -19.109598
1.5001588 12.084878 -19.075474
2.1969792 12.102473 -18.984515
2.9268773 12.145754 -18.878987
3.7035759 12.209299 -18.721975
4.5224111 12.295244 -18.519919
5.3268145 12.398925 -18.291633
6.1065453 12.5199 -18.041021
6.8832386 12.639734 -17.782991
7.6680127 12.732593 -17.511466
8.4640379 12.853239 -17.156634
9.2538157 12.977404 -16.812704
10.031764 13.104532 -16.466841
10.785579 13.247915 -16.102143
11.490213 13.361402 -15.774186
12.152667 13.455814 -15.396667
12.936576 13.524331 -14.954777
13.832816 13.560533 -14.451901
14.736578 13.570128 -13.921215
15.749401 13.459568 -13.202941
16.760861 13.340704 -12.459475
17.849627 13.174558 -11.663562
18.97679 13.002888 -10.793296
-3.0390935 11.311095 -19.365787
-2.4580715 11.355347 -19.466304
-1.9033651 11.374612 -19.572333
-1.3470956 11.362272 -19.673937
-0.78475183 11.335282 -19.733572
-0.21656468 11.298728 -19.792552
0.38072996 11.256369 -19.851427
0.96976526 11.240674 -19.868391
1.5821793 11.214605 -19.850171
2.2621551 11.213011 -19.789507
2.9714402 11.216881 -19.694802
3.7402407 11.260871 -19.553283
4.5065668 11.327795 -19.346955
5.2905502 11.456132 -19.06935
6.0620589 11.584306 -18.81105
6.8515354 11.681468 -18.504361
7.616994 11.795265 -18.138562
8.3773932 11.92637 -17.746747
9.1481956 12.068477 -17.377211
[...]
POINT_DATA 900
VECTORS normals float
-0.41841179 0.796652 -0.43620771
-0.38001042 0.79375059 -0.47492324
-0.34684123 0.79755114 -0.49357202
-0.31881666 0.79745443 -0.51227177
-0.28205436 0.79942831 -0.53043351
-0.24890625 0.79701883 -0.55027871
-0.20763042 0.78936786 -0.57774388
-0.17207992 0.78067026 -0.60078486
-0.13588105 0.77439904 -0.61793403
-0.1056647 0.76271969 -0.6380389
-0.086361337 0.75569361 -0.64920635
-0.062514516 0.75189305 -0.65631454
-0.031696681 0.74251175 -0.66908267
-0.0046148558 0.7375928 -0.67523001
0.021471444 0.73029709 -0.68279217
0.031462273 0.72843958 -0.68438725
0.043529668 0.72719107 -0.68505352
0.052553615 0.71771482 -0.69435117
0.063810863 0.71658806 -0.69457161
0.074146533 0.71097574 -0.69929664
0.081225826 0.7072536 -0.70227823
0.093246359 0.70165065 -0.70639329
0.10825409 0.69111319 -0.71459332
0.12625738 0.67349107 -0.72833292
0.15405439 0.65071438 -0.74353079
0.1897635 0.62612172 -0.7562813
0.22898395 0.57776512 -0.78342442
0.25473739 0.53775269 -0.80369827
0.30229332 0.48469194 -0.82078772
0.37109998 0.4352307 -0.82027986
-0.38041398 0.77607138 -0.50298948
-0.33755582 0.77915705 -0.52817644
-0.3115842 0.77544913 -0.54917568
-0.27798485 0.7740344 -0.56885425
-0.25057202 0.77050573 -0.58611823
-0.20672272 0.76849356 -0.60554385
-0.17272552 0.76272347 -0.62323254
-0.13276883 0.75496241 -0.64218705
-0.10821799 0.75009504 -0.65241574
-0.091918205 0.74779249 -0.65753892
-0.0701198 0.74140372 -0.66738575
-0.04424306 0.73285891 -0.67894062
-0.0080884684 0.72326288 -0.69052544
0.022501727 0.71380675 -0.69998114
0.034898024 0.70661711 -0.70673502
0.048169182 0.69971767 -0.71279374
0.056959007 0.693881 -0.71783342
0.064631208 0.68607879 -0.72465075
0.07567276 0.68025946 -0.72905466
0.082933705 0.67984579 -0.72865061
0.092465296 0.67501054 -0.73199108
0.10696058 0.66725418 -0.7371101
0.12585363 0.65676744 -0.74351691
0.14701123 0.64282348 -0.75177501
0.18871331 0.62106748 -0.76069867
0.22743679 0.58750265 -0.77660359
0.25941216 0.53864129 -0.8016052
0.31394149 0.48442624 -0.81656106
0.37169847 0.40946879 -0.83317198
0.45357534 0.33565459 -0.82559397
-0.33860415 0.75039801 -0.56767073
-0.30472091 0.75082626 -0.58600777
-0.27157578 0.75217723 -0.60039655
-0.24331293 0.75058808 -0.61434221
-0.20689081 0.7483693 -0.63019012
-0.17610873 0.74771079 -0.64024549
-0.1435591 0.7450391 -0.65138891
-0.11449662 0.7411613 -0.66149108
-0.090763501 0.73605164 -0.67081292
-0.069573277 0.72992294 -0.67997946
-0.041092207 0.72181837 -0.69086154
-0.016408677 0.71335652 -0.70060919
0.017595288 0.69851446 -0.71537959
0.038814798 0.69201306 -0.72084072
0.053864876 0.68184315 -0.72951251
0.068132735 0.6768687 -0.73294385
0.074075209 0.6672372 -0.74115274
0.082088573 0.66279256 -0.74428992
0.088377275 0.65917524 -0.74677805
0.096797952 0.65522214 -0.74920898
0.10644356 0.64878611 -0.75348945
0.12287684 0.64203831 -0.75676158
0.14474853 0.63324392 -0.760296
0.1760769 0.61624484 -0.76761919
0.22074073 0.59131165 -0.77564429
0.27290652 0.54758058 -0.79099781
0.32251147 0.50132442 -0.80290733
0.36082338 0.43539363 -0.82476595
0.43456043 0.34884981 -0.83033791
0.50306796 0.28274265 -0.81668796
-0.29296866 0.73707848 -0.60900302
-0.26084789 0.73795024 -0.62240487
-0.23469977 0.73525692 -0.63585634
-0.21646084 0.73418159 -0.64352319
-0.17880312 0.73113991 -0.65837974
-0.15303071 0.73178253 -0.66413548
-0.12104522 0.72816886 -0.67462446
-0.094609411 0.72267332 -0.68468411
-0.067316964 0.71449173 -0.69639787
-0.043005622 0.70548417 -0.70741968
-0.016879488 0.69880454 -0.71511349
0.013005465 0.68714886 -0.72640023
0.0387001 0.67666306 -0.73527505
0.05278395 0.67152164 -0.73910252
0.066807963 0.66965641 -0.73966005
0.080979386 0.6621571 -0.74497672
0.088542789 0.65655974 -0.74905906
0.093365189 0.65258552 -0.75194087
0.1002246 0.64553031 -0.75712987
0.10817671 0.64055073 -0.76025822
0.12032743 0.63441497 -0.76356988
0.14025386 0.62556219 -0.76746388
0.17252715 0.60829479 -0.77473339
0.20815123 0.59188837 -0.77867915
0.27036118 0.55064582 -0.789743
0.32400388 0.49889065 -0.80382187
0.3667553 0.45124288 -0.81355419
0.4149699 0.38477413 -0.82446883
0.47178356 0.30633434 -0.82678869
0.53494233 0.24071117 -0.80987335
-0.25977432 0.72843009 -0.63396128
-0.23098361 0.73005475 -0.64316921
-0.20739243 0.72677246 -0.65482071
-0.18124083 0.72142305 -0.6683566
-0.16176157 0.71866422 -0.67628022
-0.12787289 0.71585734 -0.68643775
-0.10134226 0.71004748 -0.69682302
-0.074118449 0.70470506 -0.70561833
-0.046160104 0.69922983 -0.71340514
-0.018053552 0.69236538 -0.72132118
0.011755278 0.68107902 -0.73211556
0.033075064 0.67245044 -0.73940276
0.048149583 0.6650872 -0.7452118
0.061801575 0.66292217 -0.74613321
0.078162504 0.66050506 -0.74674205
0.090747179 0.65589925 -0.74937382
0.10136856 0.65017013 -0.75299616
0.10719221 0.64403597 -0.75744802
0.11313192 0.63707677 -0.76245285
0.12380532 0.62887045 -0.76758986
0.14139364 0.61963534 -0.77204915
0.16593392 0.60533477 -0.77848298
0.19891779 0.58838563 -0.78373086
0.2653471 0.54188213 -0.79746766
0.31170982 0.50163598 -0.80696861
0.36725809 0.44812982 -0.81504672
0.4219662 0.3854399 -0.82059771
0.45373188 0.3378637 -0.82460627
0.50545059 0.26930863 -0.81975152
0.56064263 0.20703816 -0.80175747
-0.23967138 0.71263359 -0.65932617
-0.20768782 0.71407899 -0.6685484
-0.18177982 0.71104779 -0.67924012
-0.15345212 0.70946375 -0.68783256
-0.13627542 0.70736372 -0.69358891
-0.10805816 0.70121469 -0.70471369
-0.079311016 0.6966178 -0.71304517
-0.05283104 0.68980429 -0.72206573
-0.021317998 0.68427097 -0.72891617
0.0051916029 0.67981028 -0.73336964
0.021077124 0.67595436 -0.73664202
0.043066262 0.67059606 -0.74057155
0.060783104 0.66255621 -0.74654182
0.073377597 0.6562382 -0.75097747
0.088000761 0.65136389 -0.75364511
0.10266332 0.64569197 -0.75666513
0.11396435 0.64061574 -0.75935736
0.12145909 0.63480166 -0.76306916
0.12938698 0.62524767 -0.76962612
0.1455385 0.61360833 -0.77608206
0.16979619 0.59598334 -0.78483955
0.20214804 0.57786047 -0.7907044
0.25072371 0.5349083 -0.80685236
0.29958029 0.50055831 -0.81221489
0.34663724 0.45946345 -0.81776278
0.41048568 0.39333164 -0.82267352
0.45998002 0.3322249 -0.82343488
0.49255701 0.28581643 -0.82200764
0.53658596 0.23981054 -0.80905279
0.5851763 0.18397237 -0.78976127
-0.22634036 0.69181226 -0.68568639
-0.19880359 0.69341912 -0.69256556
-0.16436045 0.69600033 -0.69897724
-0.1359685 0.69292608 -0.70807204
-0.1107912 0.69216221 -0.71318776
-0.079526102 0.68767598 -0.72164905
-0.057807186 0.68444032 -0.72677354
-0.037934683 0.67915193 -0.73301679
-0.012357777 0.67476671 -0.73792762
0.011391306 0.67250357 -0.74000621
0.031796778 0.66982702 -0.74183605
0.056501527 0.66247302 -0.74695185
0.073855222 0.65667116 -0.75055206
0.087232966 0.64813421 -0.75651335
0.1035106 0.64117467 -0.76038188
0.11442679 0.63139076 -0.76697602
0.12522217 0.6257881 -0.76987574
0.13559307 0.61853497 -0.77396964
0.15487928 0.60163012 -0.78361573
0.17593268 0.58767913 -0.78973472
0.20591117 0.56712275 -0.79747876
0.24364754 0.53043109 -0.81195981
0.29433212 0.49578177 -0.81704898
0.33966932 0.45906834 -0.82090256
0.39098547 0.41743643 -0.82029091
0.43759444 0.36067424 -0.82366571
0.48269651 0.3112711 -0.81860514
0.51774413 0.25795252 -0.81572147
0.55997258 0.20690688 -0.80225947
0.60589452 0.15930135 -0.77943243
-0.21526795 0.68386707 -0.69712663
-0.18662764 0.68446831 -0.7047505
-0.14882797 0.68472664 -0.71344212
-0.11360494 0.68546155 -0.71919148
-0.083317689 0.68354115 -0.72514113
-0.056932547 0.68063935 -0.73040315
-0.039846098 0.67742964 -0.73450757
-0.025360677 0.67235202 -0.73979699
-0.0024075167 0.66832879 -0.7438621
0.025360263 0.66292485 -0.7482563
0.050303843 0.65826406 -0.75110448
0.070101794 0.6525286 -0.75451452
0.091807211 0.64513294 -0.75853472
0.10732592 0.63478822 -0.7651961
0.12074915 0.62528627 -0.77099722
0.13006015 0.61599971 -0.77693546
0.14127727 0.60673118 -0.78225189
0.16190892 0.59190919 -0.78957521
0.18827832 0.57464598 -0.79645042
0.2260062 0.54422257 -0.80792512
0.25461357 0.52311194 -0.81334238
0.28919399 0.49060515 -0.82199357
0.32915521 0.45694764 -0.82635084
0.37863704 0.41285035 -0.82836501
0.42322259 0.37640674 -0.82413628
0.46602177 0.33015908 -0.8208646
0.51387348 0.27379105 -0.81300216
0.54193581 0.22791202 -0.80892626
0.57945294 0.17442661 -0.79612163
0.62858112 0.13188738 -0.76647994
-0.20229322 0.68519887 -0.69969991
-0.16480511 0.68880366 -0.70596657
-0.1282382 0.6857735 -0.71642842
-0.096656322 0.68718031 -0.72002832
-0.065580895 0.68951764 -0.72129368
-0.040189961 0.68536761 -0.72708735
-0.023777513 0.68062308 -0.73224781
-0.0021567757 0.67314426 -0.73950804
0.023150658 0.66695523 -0.74473806
0.0444857 0.66040302 -0.74959247
0.067962187 0.65208541 -0.75509322
0.092811146 0.64177992 -0.76125201
0.11206898 0.63210966 -0.76673197
0.12983071 0.6221702 -0.7720416
0.14605012 0.61310204 -0.77638602
0.16094275 0.60253712 -0.78169461
0.18063274 0.58164209 -0.79313574
0.20534572 0.55836479 -0.80377975
0.22830916 0.53859601 -0.81104209
0.27471149 0.49833451 -0.82231157
0.31355805 0.46789838 -0.82628836
0.33838842 0.43953059 -0.83204936
0.37127337 0.41072756 -0.83274183
0.4154129 0.37020683 -0.8308905
0.46115623 0.33124642 -0.82317115
0.50095178 0.28979282 -0.81551667
0.53371301 0.24302434 -0.80999357
0.56517803 0.19034453 -0.80270963
0.59874021 0.14347001 -0.7879889
0.63995856 0.099406212 -0.76195239
-0.19115883 0.68383163 -0.70415382
-0.1549719 0.68741736 -0.70953583
-0.12028149 0.68851134 -0.71518145
-0.086948326 0.69199301 -0.71664891
-0.060306366 0.69247731 -0.71891468
-0.029243293 0.68695445 -0.72611184
-0.0038430694 0.68303499 -0.73037555
0.012361441 0.67570812 -0.73706563
0.030202923 0.67103041 -0.7408144
0.058381824 0.66401977 -0.7454323
0.087088926 0.65470919 -0.75084712
0.1086922 0.64304278 -0.75807782
0.1264288 0.63165342 -0.76487235
0.14337096 0.6214631 -0.77021321
0.17062093 0.60401022 -0.77849865
0.20085033 0.58730207 -0.78405065
0.23363146 0.55684147 -0.79708464
0.26468208 0.52536983 -0.80865935
0.28739389 0.49647324 -0.8190965
0.32126846 0.45936425 -0.82811296
0.35293008 0.42548225 -0.83330979
0.38746564 0.39756297 -0.83175361
0.4182074 0.36667289 -0.83105569
0.45510747 0.33265649 -0.82596419
0.49168649 0.29835496 -0.818064
0.52418029 0.25714639 -0.81185636
0.55210837 0.21067576 -0.80671685
0.59207851 0.15643799 -0.79055056
0.61456305 0.10997412 -0.78116448
0.65840617 0.070093542 -0.74939189
-0.18530731 0.67300463 -0.71604886
-0.14411915 0.67766337 -0.72111166
-0.109376 0.67958519 -0.72539703
-0.072116415 0.68458577 -0.72535615
-0.038982897 0.6811913 -0.73106685
-0.014869978 0.68390662 -0.729418
0.011620764 0.67717378 -0.73573135
0.02894393 0.67378017 -0.73836477
0.054955071 0.67070296 -0.73968742
0.083497947 0.66390481 -0.74314096
0.10552181 0.65598709 -0.74735941
0.12828152 0.64430881 -0.75392971
0.14697487 0.62841114 -0.76387029
0.17442343 0.60935423 -0.7734752
0.20128081 0.59263273 -0.77991825
0.23926907 0.5648411 -0.78974986
0.27529114 0.53258337 -0.80035601
0.3035435 0.50208573 -0.80979705
0.33484965 0.46353454 -0.82037275
0.36144192 0.43075866 -0.82692606
0.38964669 0.40046597 -0.82933857
0.42323286 0.36452563 -0.82945465
0.44670371 0.33968303 -0.8276903
0.48138314 0.30251316 -0.82265185
0.51408339 0.2680951 -0.81476579
0.54854796 0.22566938 -0.80508911
0.58490762 0.1720131 -0.79265035
0.61242164 0.12249798 -0.7809827
0.63400206 0.081600467 -0.76901414
0.6679385 0.052823583 -0.74233943
-0.19309767 0.65588489 -0.72974537
-0.14389617 0.66393965 -0.73381063
-0.10992864 0.66611576 -0.73770285
-0.074670656 0.67352469 -0.73538343
-0.038354102 0.67475298 -0.73704639
-0.0098678749 0.67374704 -0.73889617
0.020021233 0.67400304 -0.73845721
0.035029114 0.67207268 -0.73965619
0.064593575 0.66691504 -0.74232877
0.098903103 0.6613752 -0.7435059
0.12887827 0.65357748 -0.74580619
0.15731917 0.63673087 -0.75486719
0.18215014 0.61150045 -0.76999255
0.21464507 0.5857597 -0.78154531
0.25174658 0.55809716 -0.79066505
0.29203671 0.52451925 -0.79974628
0.32968813 0.49468369 -0.80411056
0.354662 0.46878677 -0.80898321
0.37078205 0.43768624 -0.81911625
0.3922726 0.40605329 -0.82537442
0.41782983 0.37676465 -0.82672041
0.44279705 0.34817454 -0.82625981
0.47820711 0.3165728 -0.8192067
0.50899395 0.27386436 -0.81604134
0.54229445 0.23458401 -0.80677573
0.57787286 0.17777961 -0.79652832
0.60986317 0.12738105 -0.78220265
0.63126253 0.090337329 -0.77029006
0.64681226 0.064333786 -0.75993096
0.67239362 0.048811967 -0.73858257
-0.19619974 0.64230027 -0.74091566
-0.14594307 0.65453948 -0.74180771
-0.11499607 0.66076843 -0.74172838
-0.075890085 0.66897725 -0.7393985
-0.03774731 0.67032599 -0.74110607
-0.0027612789 0.6696647 -0.74265844
0.024378652 0.67004931 -0.74191617
0.047410634 0.66690505 -0.7436329
0.083015775 0.65971463 -0.74691699
0.11971889 0.65498164 -0.74610082
0.15637922 0.64548614 -0.74759159
0.19216098 0.62412193 -0.75732818
0.22657061 0.59476887 -0.77130781
0.27070236 0.55622968 -0.78570273
0.30380138 0.52104321 -0.79763318
0.34159858 0.48692142 -0.80387682
0.37378377 0.45793437 -0.80658652
0.39337318 0.43138328 -0.81189039
0.41697021 0.40701253 -0.81269714
0.42933345 0.38368772 -0.81759191
0.44970056 0.34982117 -0.82182392
0.47017576 0.3250201 -0.82054658
0.49902339 0.28816228 -0.81727483
0.53245931 0.2415059 -0.81127183
0.57366972 0.19522257 -0.79548174
0.60353562 0.14804647 -0.78347112
0.6277293 0.11121152 -0.77044657
0.63956986 0.079922049 -0.76456711
0.65278009 0.05809821 -0.75531632
0.67925232 0.042125363 -0.73269485
-0.19780017 0.6416768 -0.74103035
-0.15419981 0.6502135 -0.74393873
-0.1206011 0.65570413 -0.74532374
-0.06984057 0.66458121 -0.74394497
-0.0359476 0.66411738 -0.7467636
0.0003895262 0.6656345 -0.74627781
0.024216916 0.66619347 -0.74538567
0.058666597 0.66189466 -0.74729759
0.098088132 0.65371572 -0.75035624
0.14471511 0.64192053 -0.75299108
0.19090836 0.62533245 -0.7566461
0.24443091 0.59137002 -0.76846277
0.27917655 0.56535991 -0.77616275
0.3132522 0.52472778 -0.79153889
0.35842528 0.47763081 -0.80212226
0.38348502 0.45700882 -0.80254731
0.4066015 0.42612673 -0.8081406
0.43396679 0.38825685 -0.81297567
0.4501626 0.37855638 -0.80873277
0.46657521 0.35204597 -0.81140077
0.4810871 0.32155033 -0.81557378
0.49915078 0.29563741 -0.81452258
0.52860233 0.26159668 -0.80755604
0.56187171 0.21894328 -0.79772428
0.59254437 0.17859944 -0.78548928
0.62037301 0.1345461 -0.77268019
0.64035559 0.096500272 -0.7619924
0.6492706 0.070268726 -0.75730443
0.66208506 0.051325575 -0.74766909
0.68383317 0.033034503 -0.72889019
-0.20697998 0.63530493 -0.74400735
-0.15526303 0.64380403 -0.74927282
-0.11768079 0.65043074 -0.75039395
-0.069843479 0.65812744 -0.74966003
-0.026739855 0.65885119 -0.75179791
-0.00072842356 0.65738277 -0.75355647
0.038362005 0.65621823 -0.75359538
0.072275736 0.65178001 -0.75495631
0.11965283 0.63487614 -0.76329253
0.18339243 0.60847409 -0.77209228
0.23400124 0.58378752 -0.77745453
0.28835316 0.55358058 -0.78128164
0.3369426 0.51939058 -0.78530447
0.36671821 0.49145648 -0.78992929
0.40043964 0.4508689 -0.7977251
0.43105618 0.41574753 -0.80083991
0.45352298 0.38574103 -0.80344306
0.47053123 0.35497395 -0.80783281
0.48261158 0.33913211 -0.8075119
0.50086533 0.32361022 -0.80275173
0.51615796 0.29205456 -0.80516153
0.53191288 0.26113894 -0.80552786
0.54698568 0.2266519 -0.80587566
0.57813604 0.19351167 -0.79266131
0.61246916 0.14757233 -0.77659766
0.63769165 0.11105263 -0.7622445
0.64770399 0.08387388 -0.75726132
0.65624003 0.05748763 -0.75235909
0.67212343 0.037429846 -0.73949246
0.68696271 0.024566374 -0.7262773
-0.2132823 0.62693902 -0.74930509
-0.15906664 0.64031104 -0.75146495
-0.11592671 0.64281789 -0.75719625
-0.070195561 0.64803354 -0.75837004
-0.020623532 0.64749752 -0.76178844
0.012421916 0.64624137 -0.76303197
0.055330753 0.63615254 -0.7695768
0.11188753 0.61943768 -0.77703162
0.17443832 0.59456905 -0.78489421
0.23252452 0.56084428 -0.79459804
0.28796539 0.52859545 -0.79853791
0.34528607 0.49341886 -0.79832034
0.38466027 0.46438144 -0.79773827
0.41523601 0.438451 -0.79708204
0.4425622 0.42053555 -0.7920155
0.47162662 0.38225739 -0.79463679
0.49243323 0.35539698 -0.79448254
0.51036671 0.32033575 -0.79806693
0.52365602 0.2970617 -0.79846022
0.53518541 0.28123359 -0.79654519
0.54912176 0.25432062 -0.79610698
0.55602904 0.23434589 -0.79744198
0.56870861 0.20774391 -0.79587247
0.60146075 0.16840106 -0.78095201
0.62667633 0.12825058 -0.76865374
0.64882403 0.09613646 -0.75484115
0.65831617 0.071352263 -0.74935217
0.66756691 0.041458107 -0.74339468
0.67764921 0.027596139 -0.73486734
0.68913848 0.017609696 -0.72441567
-0.223395 0.61741662 -0.75424889
-0.1635575 0.63221463 -0.75733322
-0.11357858 0.63374386 -0.76515922
-0.061125718 0.63080343 -0.77353131
-0.024744198 0.63212838 -0.77446849
0.028463814 0.61909125 -0.78480305
0.077055409 0.60093605 -0.79557421
0.14105503 0.58489138 -0.79875249
0.22123721 0.54363295 -0.80964024
0.28287415 0.51297503 -0.81045594
0.33746256 0.47924781 -0.81021019
0.39078562 0.44880867 -0.80365252
0.4299306 0.41075325 -0.80401582
0.45350191 0.39659623 -0.79815252
0.48238232 0.36531611 -0.79614788
0.50926954 0.33144795 -0.79422087
0.53120009 0.30821416 -0.78919611
0.54072439 0.29221288 -0.78881479
0.55279488 0.26337124 -0.79060319
0.56465707 0.24621518 -0.78774392
0.57716745 0.22365846 -0.78540094
0.58198008 0.21070256 -0.78543212
0.59905253 0.18493514 -0.77906037
0.61554193 0.14892418 -0.7739055
0.6460733 0.10761946 -0.75565028
0.66328386 0.078495422 -0.74423987
0.670146 0.0552085 -0.7401732
0.67812926 0.032244316 -0.73423499
0.68440065 0.019298957 -0.72885067
0.69615367 0.01148804 -0.71780087
-0.23189705 0.60027897 -0.76543381
-0.16584931 0.60383225 -0.77966699
-0.099245522 0.60182556 -0.79243695
-0.053179835 0.6012947 -0.79725566
0.0038364062 0.58523572 -0.81085414
0.048990355 0.5772109 -0.81512424
0.11637676 0.55033451 -0.82679403
0.19332292 0.52330416 -0.82992711
0.26053668 0.49375564 -0.82965415
0.32978943 0.45457355 -0.82740668
0.39230102 0.41450374 -0.82114953
0.43271613 0.38129266 -0.8169288
0.46200261 0.36184129 -0.80970641
0.48357085 0.33848593 -0.80720908
0.50701228 0.31510923 -0.80227471
0.52550198 0.2943192 -0.79826303
0.55109516 0.27472526 -0.78792142
0.56853149 0.25456749 -0.78228341
0.57708034 0.23843613 -0.78110594
0.58645273 0.22354434 -0.77852497
0.60237818 0.20323739 -0.77190355
0.60457109 0.18663015 -0.7743791
0.62521536 0.15921225 -0.76404006
0.6370607 0.12783338 -0.76013965
0.66084171 0.089888432 -0.74512301
0.67522794 0.063675419 -0.73485555
0.68060066 0.040105896 -0.73155605
0.68466798 0.023266433 -0.72848365
0.69072714 0.01337302 -0.72299183
0.70352877 0.0033407574 -0.71065892
-0.23146789 0.55402332 -0.79967542
-0.15755279 0.55087259 -0.81958313
-0.079395847 0.53663968 -0.84006794
-0.034464719 0.52407017 -0.85097746
0.027679766 0.50557095 -0.86234091
0.084326008 0.49115007 -0.8669837
0.14971444 0.46626907 -0.8718823
0.23933183 0.43766944 -0.86669818
0.30662979 0.41124552 -0.85840276
0.3712712 0.38608443 -0.84445042
0.41524079 0.35988694 -0.83549774
0.46101449 0.32867966 -0.82427867
0.4902011 0.30381303 -0.81694585
0.51098339 0.28300689 -0.81166685
0.52653687 0.26267784 -0.80855382
0.54785516 0.24526727 -0.79981166
0.57078414 0.23262081 -0.78745985
0.58630713 0.22181287 -0.77912964
0.59579274 0.21400939 -0.77410012
0.60310794 0.20478533 -0.77092398
0.61827902 0.18422474 -0.76406302
0.62891325 0.16168196 -0.76047818
0.64316621 0.14235811 -0.75237716
0.65990429 0.10276639 -0.74428852
0.67476035 0.069178958 -0.73478755
0.68482374 0.042035647 -0.72749533
0.68698131 0.026647877 -0.72618632
0.69027461 0.01507932 -0.72339033
0.69514181 0.0062157069 -0.71884576
0.71062848 -0.0081624728 -0.7035201
-0.23251188 0.49632208 -0.83642251
-0.15190271 0.47223864 -0.8682835
-0.06980248 0.46454869 -0.88279223
-0.013644275 0.43847733 -0.89863867
0.053189452 0.40098493 -0.91453921
0.11346923 0.38946449 -0.91402524
0.16858964 0.3756765 -0.91128739
0.25242721 0.35573153 -0.89985309
0.32634789 0.33690019 -0.88317344
0.39402237 0.32137396 -0.8610837
0.43682768 0.29797841 -0.84875818