# vtk DataFile Version 2.0
Grain example
ASCII
DATASET UNSTRUCTURED_GRID
POINTS 900 float
7.0060994 12.307709 -17.966545
7.7106228 12.293941 -17.720927
8.4378155 12.290211 -17.475377
9.1774006 12.275868 -17.225118
9.9212002 12.24586 -16.942369
10.661739 12.251901 -16.591241
11.405944 12.2625 -16.216823
12.173299 12.281614 -15.795419
12.99293 12.314634 -15.348672
13.843017 12.315112 -14.838232
14.770032 12.311686 -14.221712
15.742479 12.275429 -13.430768
16.721069 12.211561 -12.611437
17.691397 12.136016 -11.797046
18.66697 12.014857 -10.988888
19.611348 11.906188 -10.180184
20.493263 11.854668 -9.3749533
21.258677 11.816685 -8.6366627
21.982443 11.799414 -7.9139267
22.688851 11.788417 -7.1911426
23.393225 11.81929 -6.4254549
24.040136 11.817926 -5.6950247
24.686863 11.80588 -4.9629042
25.220008 11.793394 -4.3116402
25.693392 11.801365 -3.6810581
26.111757 11.828814 -3.0749715
26.453952 11.882746 -2.463283
26.781303 11.929062 -1.8651365
27.101117 11.976978 -1.2879398
27.341454 12.06012 -0.71714633
6.9198941 11.64457 -18.426914
7.6009147 11.618277 -18.193673
8.3310892 11.604543 -17.942416
9.0726403 11.571014 -17.677534
9.8154876 11.585307 -17.339636
10.557001 11.605187 -16.974439
11.301038 11.618476 -16.586774
12.068685 11.636867 -16.168883
12.873258 11.63542 -15.677645
13.726054 11.632256 -15.130135
14.657864 11.597415 -14.449816
15.647168 11.500844 -13.626261
16.648015 11.438039 -12.796929
17.637163 11.321724 -11.961963
18.615889 11.2039 -11.136665
19.560669 11.107858 -10.31999
20.441688 11.029725 -9.5101833
21.225136 10.941076 -8.7458651
21.938023 10.915373 -8.0398538
22.630942 10.871059 -7.3482839
23.333752 10.852738 -6.6079538
24.012992 10.840595 -5.8421468
24.624389 10.843928 -5.1233246
25.120525 10.868559 -4.4600922
25.584563 10.89453 -3.8243251
25.983323 10.960823 -3.1940142
26.343687 11.029704 -2.5591125
26.668525 11.089912 -1.9473778
26.961747 11.151312 -1.3364913
27.197807 11.229975 -0.76149408
6.8423995 11.013124 -18.892349
7.5225549 10.965572 -18.655327
8.228911 10.89783 -18.403462
8.9576668 10.898993 -18.078938
9.6997641 10.917425 -17.720767
10.437696 10.939369 -17.346136
11.188145 10.952667 -16.957062
11.962729 10.964886 -16.513688
12.781984 10.959658 -15.983514
13.631253 10.934688 -15.381002
14.57694 10.851648 -14.636126
15.565158 10.754295 -13.816665
16.58149 10.617266 -12.969238
17.577564 10.491461 -12.125176
18.548716 10.392933 -11.287915
19.489381 10.299065 -10.461382
20.37773 10.222081 -9.6443437
21.175236 10.123804 -8.8700957
21.890756 10.023853 -8.1488382
22.573498 9.9388045 -7.4699264
23.275511 9.8805247 -6.7636697
23.938111 9.8758843 -6.0188343
24.505951 9.9096648 -5.2951341
25.002035 9.9584 -4.6218332
25.439705 10.011233 -3.9679849
25.833568 10.062455 -3.331429
26.181424 10.120535 -2.6980567
26.520818 10.199137 -2.0740932
26.810966 10.295934 -1.4252549
27.05466 10.399728 -0.80624205
6.7697353 10.383339 -19.348546
7.4654151 10.303092 -19.106241
8.1543461 10.264308 -18.796803
8.838329 10.234557 -18.471053
9.5708486 10.256287 -18.098636
10.317958 10.262921 -17.715943
11.074562 10.275568 -17.301529
11.843665 10.250021 -16.827912
12.68314 10.243193 -16.246856
13.564231 10.226995 -15.621481
14.525287 10.114894 -14.826163
15.497465 9.9876151 -13.994475
16.523707 9.8191181 -13.1369
17.507691 9.6850817 -12.281589
18.471355 9.5894213 -11.431763
19.405777 9.4707046 -10.593078
20.298031 9.3614228 -9.7712673
21.087457 9.2621531 -9.0036496
21.832546 9.162758 -8.2733396
22.530995 9.0596798 -7.5711636
23.202959 8.9540829 -6.887071
23.787525 8.9349562 -6.2304106
24.347088 8.9757991 -5.5008358
24.839322 9.0493701 -4.7874177
25.296596 9.1034341 -4.0960761
25.681196 9.1431869 -3.4636575
26.01866 9.2114677 -2.8365991
26.359403 9.2737144 -2.2114043
26.621917 9.3842583 -1.5550407
26.870232 9.4950693 -0.90039381
6.7202235 9.7259774 -19.799801
7.4062576 9.6677278 -19.505394
8.0777822 9.6311967 -19.188542
8.7572344 9.6117216 -18.840253
9.4533259 9.5847429 -18.470993
10.199253 9.584883 -18.066137
10.968299 9.5466376 -17.600765
11.732938 9.520634 -17.10312
12.575185 9.5031797 -16.519467
13.495643 9.4539317 -15.831
14.469254 9.3442281 -15.02117
15.467695 9.1982414 -14.167314
16.452349 9.0344817 -13.295209
17.432106 8.8972831 -12.429175
18.378591 8.7334924 -11.565362
19.300595 8.5831808 -10.721915
20.193199 8.4577483 -9.8980703
20.991921 8.3605984 -9.145243
21.755464 8.2667505 -8.4108476
22.454394 8.1823062 -7.6982588
23.067844 8.1008899 -7.0161821
23.626129 8.0189207 -6.3758354
24.139452 8.0118417 -5.7021015
24.641699 8.072587 -4.9681747
25.115626 8.1285344 -4.2639758
25.511371 8.1900413 -3.6034725
25.854413 8.2598296 -2.9677799
26.176836 8.3231898 -2.3409908
26.427481 8.4361757 -1.6751018
26.658444 8.5425401 -1.018867
6.6589024 9.0576224 -20.226143
7.3237983 9.015768 -19.909756
7.9917907 8.9893062 -19.571168
8.6700102 8.9553331 -19.213019
9.3721146 8.9163504 -18.820041
10.09429 8.8315922 -18.376443
10.846128 8.7915273 -17.896487
11.624784 8.7565689 -17.385601
12.47172 8.7294225 -16.794332
13.4107 8.6286961 -16.056509
14.397622 8.478024 -15.228242
15.388485 8.3199249 -14.354103
16.360712 8.1383626 -13.463606
17.327828 7.9576861 -12.569826
18.269495 7.7650526 -11.686041
19.174162 7.5741526 -10.856061
20.054241 7.4245474 -10.045304
20.86174 7.3202317 -9.2987508
21.622217 7.2377329 -8.5634382
22.274711 7.1736583 -7.8691171
22.880147 7.1126241 -7.1698073
23.411928 7.0548409 -6.4973872
23.911014 6.9904568 -5.8372922
24.394973 6.9506227 -5.1681416
24.889057 7.0077359 -4.4538922
25.305938 7.088939 -3.7733285
25.66014 7.1617431 -3.1203643
25.95361 7.249841 -2.4865376
26.196479 7.3697867 -1.8151746
26.422468 7.4771744 -1.15495
6.5523593 8.3383352 -20.641256
7.2263975 8.3186454 -20.295178
7.8944398 8.3001893 -19.944288
8.592047 8.2340056 -19.550399
9.2979327 8.1406004 -19.125739
10.000819 8.0557793 -18.65933
10.723509 7.9882741 -18.184904
11.510859 7.9233516 -17.656695
12.361277 7.8619572 -17.043148
13.332057 7.6982935 -16.255249
14.304554 7.5137365 -15.406722
15.277135 7.3324327 -14.514872
16.251052 7.1466575 -13.617582
17.223461 6.930363 -12.707895
18.151574 6.7113965 -11.820846
19.04941 6.5232291 -10.978827
19.902882 6.3691392 -10.19589
20.713386 6.2970264 -9.4531012
21.428708 6.2292735 -8.7363121
22.065485 6.168456 -8.0428747
22.644888 6.1047625 -7.3350093
23.175376 6.0659544 -6.6372525
23.688145 6.0080746 -5.9557406
24.175337 5.9542006 -5.3007564
24.64995 5.9323673 -4.6264193
25.075371 5.9689625 -3.9600352
25.458928 6.0597485 -3.2801092
25.721991 6.1621407 -2.6230296
25.953916 6.2762988 -1.9417247
26.179069 6.3784978 -1.2800581
6.4636532 7.6635181 -21.023631
7.1223514 7.6068117 -20.672952
7.8133468 7.5446926 -20.287641
8.5224468 7.4559859 -19.866335
9.2128738 7.3643846 -19.408822
9.9079984 7.2677852 -18.947753
10.623577 7.1803051 -18.464531
11.407545 7.0852494 -17.922422
12.280117 6.926048 -17.242376
13.237415 6.7122258 -16.432659
14.198892 6.5222052 -15.55899
15.167542 6.3299955 -14.667357
16.140047 6.1186054 -13.76067
17.112749 5.8622988 -12.8306
18.042597 5.6518688 -11.955503
18.935612 5.4667338 -11.126778
19.759917 5.3421462 -10.354179
20.507337 5.2550067 -9.6309483
21.172271 5.1883241 -8.9196138
21.807708 5.1103517 -8.2158419
22.378612 5.0765312 -7.4984574
22.914948 5.0485674 -6.8003796
23.451267 5.0112154 -6.0941878
23.938418 4.9720772 -5.4345414
24.41748 4.9413134 -4.7761179
24.844332 4.9320822 -4.117827
25.220422 4.9440362 -3.4338301
25.476155 5.0532476 -2.7446379
25.702732 5.1685296 -2.072541
25.903269 5.2730892 -1.3772251
6.406311 7.0008866 -21.366382
7.0582805 6.9026878 -21.004129
7.7429798 6.7815807 -20.611833
8.437388 6.6797695 -20.149418
9.1354272 6.5838987 -19.684131
9.8278363 6.4824988 -19.220109
10.553142 6.3594836 -18.719624
11.314505 6.2021088 -18.163222
12.195383 5.972756 -17.419255
13.13936 5.7522826 -16.590743
14.097543 5.5220549 -15.698422
15.060097 5.2929185 -14.799773
16.028862 5.0525094 -13.887378
16.999711 4.8084689 -12.965227
17.934937 4.5954147 -12.088324
18.797361 4.4441303 -11.289623
19.59036 4.3381019 -10.52738
20.268804 4.2398268 -9.8193667
20.945615 4.1251211 -9.0975071
21.529665 4.0765503 -8.3956867
22.1074 4.0439806 -7.6706694
22.636674 4.0000633 -6.971165
23.169994 3.9633283 -6.2625667
23.687309 3.9687792 -5.5669631
24.17058 3.9491845 -4.9001544
24.59892 3.9517061 -4.2447928
24.961061 3.9732525 -3.5640655
25.212357 4.0297574 -2.8500942
25.410338 4.0986665 -2.1475188
25.592141 4.1990889 -1.4630091
6.4087979 6.3633185 -21.681559
7.043995 6.2176788 -21.312013
7.6892676 6.0564473 -20.881124
8.359874 5.9100168 -20.426214
9.0526334 5.7924664 -19.96016
9.7460261 5.653347 -19.491526
10.488013 5.4960226 -18.966245
11.260908 5.2745204 -18.342726
12.10452 5.0180209 -17.577328
13.048612 4.7686856 -16.727887
14.00717 4.5263093 -15.827379
14.963946 4.2755968 -14.927562
15.924166 3.9936538 -14.004183
16.881551 3.7537003 -13.105578
17.806972 3.5599519 -12.244382
18.639014 3.4330604 -11.454272
19.362822 3.3105815 -10.706301
20.024301 3.2017577 -9.9995195
20.670493 3.1134971 -9.2829745
21.261575 3.0554282 -8.5788921
21.842038 3.0155979 -7.8551003
22.397541 2.9769435 -7.144444
22.915094 2.9421369 -6.4364945
23.414072 2.9326373 -5.7437221
23.912142 2.9447384 -5.0398074
24.315323 2.9537991 -4.3779447
24.638535 2.9900779 -3.6804309
24.873694 3.059257 -2.9413554
25.085481 3.154682 -2.1866064
25.250578 3.221073 -1.5102854
6.4182967 5.7135409 -21.973823
7.0438657 5.5430358 -21.565688
7.6849908 5.3665783 -21.129155
8.3297645 5.1813066 -20.680894
8.9795182 4.98562 -20.228528
9.676825 4.7947556 -19.742207
10.424742 4.5986466 -19.189282
11.208485 4.3586882 -18.491157
12.050192 4.0623839 -17.718442
12.961663 3.77826 -16.857086
13.909469 3.5294164 -15.963568
14.871657 3.254776 -15.044566
15.828181 2.9717674 -14.127236
16.752779 2.7319444 -13.248599
17.660617 2.5363357 -12.400336
18.423738 2.3996372 -11.62568
19.116773 2.2761859 -10.889071
19.765407 2.1747125 -10.182778
20.385755 2.1132305 -9.4620733
20.99197 2.0533521 -8.7500809
21.565655 1.9888128 -8.0305876
22.13007 1.9529906 -7.3142587
[...]
POINT_DATA 900
VECTORS normals float
0.2212265 0.57401104 -0.78839721
0.25275813 0.54311599 -0.80071115
0.28550529 0.50859525 -0.81229158
0.3247153 0.47581961 -0.8174079
0.36048291 0.42960723 -0.82794306
0.3952091 0.39307292 -0.830243
0.43047434 0.35978728 -0.82779524
0.47139022 0.31976573 -0.8219131
0.50638177 0.28067289 -0.81535282
0.53866697 0.23844163 -0.80807393
0.56523429 0.19234843 -0.80219217
0.59616711 0.14629982 -0.78941823
0.61975709 0.10579608 -0.77762995
0.63295209 0.077117935 -0.7703405
0.65991369 0.054446559 -0.74936606
0.68659151 0.040159419 -0.72593341
0.70004734 0.038927908 -0.7130346
0.70630594 0.038933594 -0.70683527
0.71172651 0.037594889 -0.70144992
0.7195398 0.036923901 -0.69346889
0.7372473 0.030634427 -0.67492811
0.75485351 0.021547878 -0.65553937
0.77790876 0.0095672581 -0.62830441
0.80417857 -0.0066256282 -0.59435085
0.81523102 -0.019269531 -0.57881523
0.84100059 -0.04163177 -0.53943007
0.86844094 -0.064912668 -0.49152486
0.89417603 -0.091557728 -0.43825383
0.93160292 -0.11327508 -0.34537625
0.96508598 -0.14624964 -0.21730185
0.24294093 0.56103677 -0.79133902
0.29134403 0.52956736 -0.79666622
0.32552274 0.49396024 -0.80624948
0.35668054 0.45602476 -0.8153652
0.38456879 0.41710395 -0.82348718
0.41833219 0.3737765 -0.82782203
0.45431078 0.33847636 -0.82403608
0.48863249 0.30735989 -0.81655875
0.52288908 0.26547038 -0.81000771
0.55420212 0.21546611 -0.80401142
0.58414922 0.16663861 -0.79435588
0.61112177 0.12155852 -0.78214686
0.62693425 0.090140201 -0.7738399
0.6423068 0.066965997 -0.76351656
0.66560193 0.050924039 -0.74456753
0.68777847 0.039492969 -0.72484556
0.6997331 0.036419973 -0.71347542
0.70508836 0.035941484 -0.70820803
0.71178576 0.035496062 -0.70149916
0.72095716 0.033888783 -0.69215051
0.74076992 0.02820202 -0.67116658
0.76084095 0.019362974 -0.64864947
0.78318079 0.0043684013 -0.62177872
0.8024006 -0.011478576 -0.59667539
0.8227682 -0.025958494 -0.56778398
0.84176035 -0.045186989 -0.53795693
0.87486689 -0.070992611 -0.47913252
0.8963152 -0.095358423 -0.43304253
0.93637807 -0.12456473 -0.3281459
0.96547811 -0.15688655 -0.207939
0.27637111 0.53820342 -0.7962136
0.32104749 0.50328521 -0.80226711
0.35919167 0.46800308 -0.80743698
0.38755068 0.4299915 -0.81542123
0.40764157 0.39616993 -0.8227258
0.43587266 0.36433199 -0.82296854
0.46916958 0.32670753 -0.82045237
0.50370452 0.28220543 -0.81648138
0.54030204 0.2403494 -0.80641544
0.57322737 0.19486887 -0.79588725
0.60366795 0.15212352 -0.78258766
0.62257729 0.11569116 -0.77395935
0.63578364 0.085357251 -0.76713317
0.65000737 0.063608894 -0.75726107
0.67105912 0.049362678 -0.73975873
0.68955662 0.039113494 -0.72317481
0.69992886 0.036418405 -0.71328346
0.70596044 0.035851291 -0.7073433
0.71264876 0.035881968 -0.70060276
0.72393317 0.031966102 -0.68912912
0.74413665 0.022550844 -0.66764669
0.76630031 0.012119558 -0.64236824
0.78546666 -0.0044999772 -0.61888762
0.80421007 -0.021124459 -0.59396962
0.82319243 -0.035639311 -0.56664281
0.84870842 -0.054472835 -0.52604822
0.87563439 -0.075332869 -0.47706328
0.90222334 -0.09914739 -0.41971756
0.93762035 -0.12328961 -0.32506578
0.96822232 -0.15684785 -0.19479295
0.31046693 0.51454187 -0.79928527
0.36247462 0.4685199 -0.8056682
0.39010153 0.43932512 -0.80920593
0.41719504 0.40749011 -0.81234236
0.44334544 0.37261605 -0.81523132
0.46536718 0.34111431 -0.81674624
0.49769502 0.2973157 -0.81480246
0.52595653 0.26000381 -0.80979488
0.55466768 0.22674156 -0.8005823
0.58807867 0.18081089 -0.78833426
0.61487715 0.14129261 -0.77586241
0.63488953 0.10598837 -0.76529847
0.64297957 0.080747828 -0.76161478
0.65505182 0.059425701 -0.75324345
0.67252831 0.042224526 -0.73886586
0.68999508 0.031620949 -0.72312302
0.69877741 0.030158803 -0.71470314
0.7061878 0.030001054 -0.70738867
0.71041582 0.02859037 -0.70320121
0.72745913 0.017522758 -0.68592723
0.75039182 0.0012538236 -0.66099209
0.7642582 -0.005999173 -0.64488248
0.78751582 -0.019123212 -0.61599768
0.80566663 -0.030084739 -0.59160476
0.82955676 -0.047888396 -0.55636525
0.85906246 -0.070467959 -0.50699699
0.87713001 -0.085637444 -0.47255601
0.90669385 -0.10924211 -0.40739713
0.93991737 -0.14983357 -0.30676578
0.96232416 -0.18070485 -0.20316981
0.34527143 0.47906976 -0.80701909
0.38944518 0.44727153 -0.80515876
0.41852964 0.41682881 -0.80689943
0.44579784 0.38626413 -0.80750499
0.46872733 0.3547678 -0.80897126
0.49427328 0.3161482 -0.80978037
0.51956461 0.27776206 -0.80802281
0.54303174 0.23996536 -0.80469445
0.57476535 0.20309784 -0.79271437
0.60365561 0.16710794 -0.77953502
0.62928713 0.12692448 -0.76673847
0.6428932 0.098672167 -0.75957365
0.65362039 0.073646344 -0.75323078
0.66256386 0.049321109 -0.7473798
0.67323403 0.034523177 -0.7386231
0.68897735 0.023912347 -0.7243883
0.69693455 0.020365258 -0.71684551
0.70178562 0.021076813 -0.71207634
0.70999191 0.017467271 -0.70399317
0.72878687 0.0049793656 -0.6847225
0.75085985 -0.016129267 -0.6602646
0.77024863 -0.029366036 -0.63706725
0.78954027 -0.04152091 -0.61229255
0.80667942 -0.050240322 -0.58884991
0.83495441 -0.070492657 -0.5457856
0.86306401 -0.084587288 -0.49796135
0.88658805 -0.10910552 -0.44950819
0.910751 -0.13385664 -0.39065973
0.93759964 -0.16564257 -0.30572774
0.96209135 -0.19439186 -0.19129047
0.37841738 0.45589977 -0.80557786
0.41322842 0.41859643 -0.8087146
0.4445989 0.38308736 -0.80967641
0.47342675 0.35187014 -0.80749893
0.49499333 0.32254945 -0.80681067
0.51768981 0.28901686 -0.80527419
0.54242876 0.2493706 -0.80223771
0.55571988 0.21799522 -0.80228019
0.58988536 0.17878271 -0.78744651
0.61876128 0.14318535 -0.77241986
0.63915545 0.11490186 -0.76044584
0.65297171 0.087167321 -0.75234952
0.66259831 0.061837605 -0.74641784
0.67025458 0.041541298 -0.74096769
0.67948387 0.025970698 -0.73323065
0.6890771 0.017707202 -0.72447168
0.69564182 0.013507078 -0.7182618
0.70384307 0.0054005731 -0.71033497
0.71440793 -0.005139496 -0.69971058
0.73380061 -0.021746968 -0.67901675
0.75195505 -0.037665457 -0.65813746
0.77268655 -0.052301366 -0.63262948
0.7893608 -0.063712399 -0.61061466
0.80872424 -0.076372797 -0.58320863
0.83585861 -0.085150397 -0.54230047
0.86320296 -0.10387084 -0.49405616
0.89054464 -0.12621587 -0.43703524
0.91117128 -0.15076788 -0.38345266
0.9375859 -0.17802123 -0.29873253
0.96271732 -0.21541055 -0.16362658
0.41327072 0.42956179 -0.80292215
0.44941322 0.39230344 -0.80257447
0.47602455 0.34967531 -0.80692491
0.50150023 0.32022471 -0.80371242
0.52120194 0.29141039 -0.80213996
0.54284841 0.2617479 -0.79799978
0.56370809 0.22724682 -0.79409828
0.58393321 0.19217524 -0.78872726
0.60304257 0.15891484 -0.78171973
0.63618913 0.12340886 -0.7615994
0.65244976 0.096011702 -0.75172539
0.66797654 0.069906621 -0.74089163
0.67198533 0.048920836 -0.73894686
0.67808318 0.031014095 -0.73433053
0.6845796 0.019520131 -0.7286767
0.69119162 0.012334314 -0.72256627
0.69973565 0.0042127666 -0.71438944
0.71039381 -0.0081556847 -0.70375714
0.72635369 -0.02578433 -0.68683731
0.74351687 -0.045894244 -0.66714045
0.75921595 -0.059054876 -0.64815405
0.77748842 -0.070619241 -0.62491974
0.79426264 -0.081628461 -0.60206615
0.81074152 -0.087554198 -0.57881988
0.84005274 -0.10442905 -0.53235887
0.86838724 -0.12087486 -0.48092917
0.8974723 -0.14052905 -0.41808499
0.92021439 -0.17094492 -0.35211263
0.94944862 -0.19832821 -0.2433377
0.96392508 -0.23693089 -0.12129383
0.45423451 0.398803 -0.79663491
0.47890643 0.36541848 -0.7981967
0.50758446 0.32026955 -0.79986588
0.53432755 0.2858132 -0.79549034
0.54732279 0.26407357 -0.79416806
0.56865416 0.23746164 -0.78755598
0.58271083 0.20889784 -0.78537238
0.60299977 0.17524878 -0.77825391
0.62450332 0.13837163 -0.76866696
0.65129737 0.10274319 -0.75183481
0.66623422 0.078552258 -0.74159389
0.67762678 0.057665478 -0.73314162
0.6799262 0.03909704 -0.73223751
0.68513945 0.023933776 -0.72801862
0.68864601 0.014796018 -0.72494673
0.69725298 0.0063430179 -0.71679707
0.70864145 -0.0064133524 -0.70553963
0.72249872 -0.024792617 -0.69092758
0.73339196 -0.037946517 -0.67874612
0.75112717 -0.05609224 -0.6577702
0.76382987 -0.068891715 -0.64173037
0.77760317 -0.080110189 -0.62363103
0.795779 -0.091969283 -0.59856281
0.81394257 -0.10336923 -0.57167499
0.84052501 -0.12172949 -0.52792011
0.87104639 -0.14065452 -0.47063202
0.90197054 -0.16392446 -0.39947206
0.92691517 -0.19083748 -0.32312432
0.9518931 -0.22729563 -0.20551455
0.96532741 -0.24994211 -0.075312196
0.48461583 0.35782149 -0.79819251
0.51699482 0.32603164 -0.79146682
0.53755464 0.29058801 -0.79157667
0.55832708 0.25672868 -0.78889876
0.57208199 0.23796155 -0.78491814
0.58699363 0.21650659 -0.78010472
0.60457229 0.18981818 -0.77360287
0.62510955 0.15940676 -0.76408608
0.64623785 0.11841677 -0.75389264
0.66359257 0.087913594 -0.74291057
0.67787412 0.062288403 -0.73253453
0.68479127 0.042334891 -0.72750854
0.68698131 0.026647877 -0.72618632
0.68886968 0.017538721 -0.724673
0.69300675 0.0063790988 -0.72090288
0.70426904 -0.0025919585 -0.70992845
0.71731924 -0.018659003 -0.69649476
0.7277457 -0.033622227 -0.68502244
0.74072059 -0.052840145 -0.66973198
0.75607685 -0.06927442 -0.65080631
0.76790491 -0.079086477 -0.63566295
0.7803855 -0.090773374 -0.61867493
0.79761493 -0.10485822 -0.59398247
0.81408173 -0.12266792 -0.56764736
0.83952373 -0.14441899 -0.52377769
0.87319175 -0.17571154 -0.45460052
0.90572801 -0.20837385 -0.36910312
0.92849043 -0.23439229 -0.2880378
0.94691129 -0.25836107 -0.19133365
0.95550588 -0.28397222 -0.079801529
0.51318601 0.32772259 -0.79324525
0.53985579 0.29181678 -0.78955601
0.56556688 0.26140301 -0.78217809
0.58143611 0.23629064 -0.77852346
0.58897586 0.21924898 -0.77784145
0.60623809 0.19739481 -0.77039643
0.62450444 0.17071338 -0.76213591
0.64362525 0.14064358 -0.75230707
0.66576945 0.098109081 -0.73967942
0.68084121 0.069880626 -0.72908981
0.68891781 0.044565684 -0.72346814
0.69210852 0.028166962 -0.72124366
0.69136035 0.016749689 -0.72231594
0.6946933 0.003596133 -0.71929708
0.69949813 -0.0087665123 -0.71458066
0.7101051 -0.021454315 -0.70376875
0.72289586 -0.035102601 -0.69006477
0.73238694 -0.047473666 -0.67923164
0.74579898 -0.068244716 -0.66266624
0.7593128 -0.082718424 -0.64544692
0.77110889 -0.094041335 -0.62972002
0.78494903 -0.10416493 -0.6107411
0.80177721 -0.12108268 -0.58522841
0.82113742 -0.1453557 -0.55191038
0.84584171 -0.18127808 -0.50168722
0.87180651 -0.20726525 -0.44384066
0.90403503 -0.25062121 -0.34627975
0.92575317 -0.29009065 -0.24254582
0.93699574 -0.31150959 -0.15811629
0.94524911 -0.32151475 -0.055967719
0.54273641 0.28643789 -0.78955084
0.56447637 0.25742059 -0.78428379
0.58147698 0.23623591 -0.77850955
0.59570718 0.21628645 -0.77353289
0.60581341 0.19866545 -0.77040389
0.62131022 0.17949304 -0.76272922
0.64541464 0.14766172 -0.74942376
0.662401 0.11277791 -0.74061195
0.68017121 0.081266503 -0.72853475
0.69290886 0.053126762 -0.71906527
0.69691323 0.032317488 -0.71642692
0.69809645 0.013595568 -0.71587464
0.69575995 -0.0019319363 -0.71827179
0.69932496 -0.016785389 -0.71460679
0.70468222 -0.033381624 -0.70873735
0.71557262 -0.0519878 -0.69660111
0.72910444 -0.062719518 -0.68152255
0.73858459 -0.077385265 -0.66970466
0.75030594 -0.089552664 -0.65499719
0.76348165 -0.10497656 -0.63724069
0.77318575 -0.11547999 -0.62357691
0.78680598 -0.13076177 -0.60318961
0.80614668 -0.14739455 -0.57306402
0.82554627 -0.17672354 -0.53594976
0.84881202 -0.21571581 -0.48268503
0.87753324 -0.25443478 -0.406446
0.90282557 -0.2961624 -0.31175925
0.91768222 -0.33070861 -0.22020708
0.92530761 -0.36115389 -0.11564469
0.9320053 -0.36045563 -0.037919176
0.55038142 0.24643515 -0.79771549
0.5768196 0.22554686 -0.7851164
0.59291764 0.20627238 -0.77839603
0.6006846 0.19451648 -0.77546202
0.61844812 0.17363582 -0.76640232
0.63631068 0.15449774 -0.75580365
0.66020949 0.11791596 -0.74176766
0.67906211 0.08629464 -0.72899101
0.69319619 0.060390206 -0.7182145
0.70096247 0.038077906 -0.71218094
0.70476948 0.014608382 -0.70928596
0.70462914 -0.0039180558 -0.70956496
0.703505 -0.017846099 -0.7104662
0.70592251 -0.044590971 -0.70688405
0.71045646 -0.070312402 -0.70021981
0.71903322 -0.084615573 -0.68980536
0.73131672 -0.094744036 -0.67542536
0.74034547 -0.10483793 -0.6640012
0.7514596 -0.11576447 -0.64954374
0.76191752 -0.1336389 -0.6337368
0.77567553 -0.15139865 -0.61270378
0.79058351 -0.17363211 -0.58722193
0.80982442 -0.18510659 -0.55670455
0.82922247 -0.22002995 -0.51378684
0.85256967 -0.2610301 -0.45275627
0.87554646 -0.30261577 -0.37661929
0.89514861 -0.34662302 -0.28028814
0.90777596 -0.37320129 -0.19147741
0.91435734 -0.38712983 -0.11866399
0.91995835 -0.3916678 -0.016521449
0.56368163 0.20998214 -0.79885576
0.58463816 0.19280881 -0.78805011
0.5970468 0.17648895 -0.78255145
0.60769678 0.16027008 -0.77782911
0.62882077 0.13763254 -0.76527232
0.64677541 0.11364065 -0.75416668
0.66766617 0.088944585 -0.73912837
0.68890593 0.061621532 -0.7222267
0.70129228 0.035835753 -0.71197257
0.71002438 0.020211383 -0.70388697
0.71476357 -0.0051117653 -0.69934749
0.71434193 -0.024017726 -0.69938455
0.71082215 -0.042877121 -0.70206369
0.71231173 -0.068609274 -0.6985018
0.71510094 -0.093498866 -0.69273993
0.72608094 -0.11159157 -0.67849376
0.73309881 -0.12324502 -0.66886232
0.7405872 -0.13302971 -0.65866053
0.75250723 -0.14285146 -0.6429046
0.76202725 -0.16080271 -0.62726148
0.77744469 -0.18379247 -0.6014982
0.79051147 -0.21111259 -0.57491137
0.80870466 -0.24074402 -0.53669274
0.83070582 -0.27243673 -0.48549569
0.85204061 -0.31588805 -0.41742249
0.86798982 -0.36257684 -0.33931065
0.88628904 -0.38840569 -0.25225533
0.8955942 -0.40910955 -0.17475813
0.90315371 -0.41720954 -0.10124021
0.91136171 -0.41094427 -0.023337601
0.57160628 0.18008467 -0.80052219
0.58832399 0.16259381 -0.79210993
0.59982844 0.14252446 -0.7873326
0.61446063 0.1285204 -0.77840904
0.63589435 0.11059842 -0.76381043
0.65522518 0.082831822 -0.75087872
0.67705007 0.05288163 -0.73403456
0.69280956 0.036188866 -0.72021197
0.70514606 0.017283486 -0.70885141
0.71568692 -0.0024946892 -0.69841679
0.7216095 -0.024436368 -0.69186891
0.7206247 -0.044911823 -0.69186919
0.72049838 -0.063293293 -0.69056213
0.71764766 -0.087043975 -0.69094514
0.7206473 -0.10865666 -0.6847344
0.72982075 -0.12779994 -0.67158682
0.73689208 -0.13999835 -0.66135507
0.7431632 -0.15546014 -0.65079997
0.75451781 -0.17288517 -0.6330984
0.76432125 -0.19051684 -0.61604899
0.77925327 -0.22215403 -0.5860136
0.79545917 -0.25550604 -0.54951012
0.81165188 -0.2877153 -0.50837105
0.83065987 -0.32583991 -0.45147817
0.848386 -0.36439147 -0.38400528
0.86233355 -0.4061668 -0.30233984
0.87287881 -0.43124629 -0.22827442
0.88046581 -0.44455046 -0.16478725
0.88710683 -0.44769889 -0.11228167
0.89983703 -0.4359391 -0.015824864
0.5794272 0.14842657 -0.80139483
0.59004103 0.12797457 -0.79716629
0.60567888 0.11352782 -0.78756875
0.62127411 0.099940674 -0.77719389
0.6425976 0.075577728 -0.76246727
0.66299403 0.050927279 -0.74689044
0.67962805 0.02756226 -0.73303891
0.69357955 0.013606316 -0.72025154
0.70856997 -0.0039852757 -0.7056293
0.71920925 -0.020175722 -0.69450053
0.72611333 -0.040455685 -0.68638384
0.72677896 -0.057574657 -0.68445417
0.72779702 -0.071525499 -0.68205249
0.7238143 -0.095085966 -0.68341168
0.72939792 -0.1141872 -0.67449237
0.73657639 -0.13861353 -0.66199812
0.7430633 -0.1488031 -0.65246806
0.74944402 -0.16185706 -0.64197816
0.75857758 -0.18734296 -0.62406945
0.77695893 -0.21694946 -0.5909888
0.78860181 -0.2513349 -0.56119333
0.80235129 -0.28712608 -0.52325044
0.81609042 -0.33210538 -0.47297192
0.83064731 -0.36615563 -0.41947003
0.84286506 -0.41292863 -0.34506294
0.85042961 -0.45135019 -0.27028222
0.85769392 -0.47157216 -0.20489224
0.86610611 -0.47426507 -0.15790136
0.87098092 -0.47749007 -0.11573881
0.88358526 -0.46671666 -0.03811346
0.58366747 0.12555518 -0.80222701
0.5942583 0.10826989 -0.79695339
0.61249638 0.086831235 -0.78568983
0.62946363 0.070760415 -0.77380133
0.64913676 0.048504103 -0.75912372
0.66772907 0.024129819 -0.7440132
0.68101249 0.003970613 -0.73226103
0.69428286 -0.010635644 -0.71962364
0.70932884 -0.026702818 -0.70437175
0.72212867 -0.040273051 -0.69058545
0.72762146 -0.053192385 -0.68391343
0.7289845 -0.06454524 -0.68148038
0.73414676 -0.079197317 -0.67435623
0.73059458 -0.097328917 -0.67583921
0.73695674 -0.11964306 -0.6652671
0.74691741 -0.14439272 -0.64904941
0.74626488 -0.16078384 -0.64593907
0.75718265 -0.1811833 -0.62757234
0.7640344 -0.20875336 -0.61046987
0.77899985 -0.24300915 -0.57801885
0.79386465 -0.28321653 -0.53811459
0.80706469 -0.32031396 -0.49602979
0.81942231 -0.3590548 -0.44679607
0.82663843 -0.40360123 -0.3921415
0.84012526 -0.44273675 -0.31332685
0.84400983 -0.47869304 -0.24186851
0.84595392 -0.49800904 -0.19065405
0.85315656 -0.49908788 -0.15177346
0.85684983 -0.50102315 -0.12159017
0.86673815 -0.49493782 -0.061656609
0.58733053 0.10020785 -0.80311969
0.60079193 0.094460743 -0.79380491
0.61852126 0.06865418 -0.78276309
0.63662518 0.042208613 -0.77001741
0.6549589 0.023123629 -0.75531062
0.67155608 0.0061042124 -0.74092859
0.68210354 -0.021651485 -0.730935
0.69494859 -0.036939592 -0.71810997
0.71043711 -0.04993059 -0.70198722
0.72367609 -0.059262501 -0.68759063
0.72455519 -0.065119676 -0.68613352
0.73011206 -0.072135047 -0.67950932
0.73626055 -0.085788745 -0.67123818
0.73926953 -0.10340341 -0.66542339
0.74398077 -0.13741319 -0.65391913
0.75271898 -0.15996656 -0.63861165
0.75008176 -0.17994397 -0.63639416
0.75892471 -0.20602982 -0.61772567
0.76909121 -0.23775226 -0.59327276
0.7825468 -0.27009397 -0.56095432
0.79798896 -0.30940644 -0.51718592
0.81019844 -0.34995281 -0.47022497
0.81965196 -0.38973306 -0.4198557
0.82872018 -0.43286676 -0.35475235
0.83388172 -0.47296654 -0.28450646
0.837613 -0.49759582 -0.2253949
0.84236197 -0.50780212 -0.18045311
0.84425698 -0.51421407 -0.15104318
0.84501031 -0.52234728 -0.11450283
0.84942972 -0.52273329 -0.072243081
0.59334327 0.076179267 -0.80133669
0.60645605 0.068002349 -0.79220372
0.62026062 0.045684053 -0.78306432
0.6415947 0.027634754 -0.76654587
0.65698766 0.0023711732 -0.7538976
0.67325272 -0.020654942 -0.73912391
0.68324877 -0.043581544 -0.72888392
0.69406787 -0.055426099 -0.71777276
0.70993208 -0.068845924 -0.70089706
0.72394286 -0.071317711 -0.68616363
0.72572045 -0.075344758 -0.68385159
0.73143083 -0.083516784 -0.67678201
0.73731071 -0.094688005 -0.66888497
0.74667528 -0.12204646 -0.65389655
0.74990721 -0.14941932 -0.64444786
0.753895 -0.18323877 -0.63092462
0.75640756 -0.19956762 -0.6229128
0.76394727 -0.22874637 -0.60337357
0.77282962 -0.2683062 -0.57510536
0.78277523 -0.30096565 -0.5446858
0.79741932 -0.34619612 -0.49423747
0.80854902 -0.38494823 -0.44504308
0.81504635 -0.42119518 -0.39786188
0.82050898 -0.46381209 -0.33413075
0.82681902 -0.49366414 -0.26956635
0.83186959 -0.51313888 -0.21137992
0.83668365 -0.51883097 -0.17542773
0.83657085 -0.52880734 -0.14322012
0.83790099 -0.5348048 -0.10911349
0.84080132 -0.53682617 -0.069791198
0.59600127 0.050089231 -0.80141971
0.60779457 0.038884813 -0.79314168
0.62522569 0.015240141 -0.78029518
0.64721794 0.0034078899 -0.7622974
0.66374303 -0.017079452 -0.74776566
0.67553423 -0.04512038 -0.73594678
0.68305149 -0.060627128 -0.72784958
0.69565328 -0.072453586 -0.71471462
0.71159346 -0.079199867 -0.69811326
0.7226321 -0.080765465 -0.68649821
0.72704708 -0.084369831 -0.68138409
0.73029962 -0.096327729 -0.67630129
0.73797022 -0.11502602 -0.66495787
0.75020482 -0.14122261 -0.64594807
0.75559934 -0.16462892 -0.63400864
0.75938056 -0.19877851 -0.61953875
0.7681094 -0.22671112 -0.59884055
0.77232788 -0.25096025 -0.58354828
0.78042 -0.29205401 -0.5528554
0.78781637 -0.33473213 -0.51701042
0.8006155 -0.37565273 -0.46679745
0.80934093 -0.40997624 -0.42057905
0.8156491 -0.44603092 -0.36847383
0.81855949 -0.4852434 -0.30740723
0.82192043 -0.51403032 -0.24539691
0.82757702 -0.52698574 -0.19339675
0.8293967 -0.5348459 -0.16137218
0.8297963 -0.54131161 -0.13571976
0.83227248 -0.54409436 -0.10622544
0.83491798 -0.54574421 -0.071240646
0.59180972 0.010874314 -0.80600434
0.60749199 0.0053310351 -0.79430792
0.62249784 -0.011525223 -0.78253665
0.64784391 -0.029515397 -0.7612011
0.66592296 -0.046843115 -0.74454841