# vtk DataFile Version 2.0
Grain example
ASCII
DATASET UNSTRUCTURED_GRID
POINTS 900 float
4.348065 6.9265028 23.710589
4.3419169 7.8382883 23.171474
4.3218426 8.7137472 22.622931
4.2938726 9.5296477 22.086581
4.2597935 10.286045 21.538141
4.2040738 11.055211 20.938384
4.1231382 11.854677 20.268075
4.0395609 12.559307 19.654465
3.9482033 13.196419 19.066292
3.8575146 13.691653 18.529829
3.7640983 14.252137 17.927836
3.7180857 14.978452 17.164883
3.6785941 15.712772 16.406461
3.6494102 16.471754 15.650501
3.6257322 17.240081 14.862133
3.6563472 17.908479 14.195067
3.6951988 18.534436 13.538118
3.7128597 19.147547 12.81569
3.7221038 19.725413 12.140901
3.7289619 20.308239 11.464778
3.7429534 20.906113 10.779335
3.750396 21.489505 10.100497
3.774793 22.082078 9.3929858
3.8202303 22.630491 8.7356331
3.8650773 23.195275 8.0520947
3.9404485 23.808145 7.2328966
4.0060404 24.418537 6.3340929
4.0677899 25.016954 5.3918284
4.132285 25.536005 4.3883662
4.2701246 25.944608 3.2033435
3.7314355 7.2192678 23.735472
3.6805672 8.1068971 23.220543
3.6475961 8.8758135 22.70396
3.5848337 9.6706723 22.156792
3.4793043 10.446432 21.600491
3.3869331 11.23977 20.993686
3.2935125 12.017314 20.322739
3.1928337 12.530351 19.785761
3.0777711 13.029368 19.259186
2.9674365 13.562094 18.698628
2.942185 14.247204 17.981621
2.9061591 14.963832 17.224185
2.8701557 15.695057 16.460615
2.8278329 16.468707 15.681218
2.8172323 17.198051 14.939128
2.8429365 17.848161 14.280267
2.8675471 18.471516 13.55727
2.8710032 19.097055 12.818412
2.88822 19.681094 12.146937
2.9065119 20.260521 11.480119
2.9084008 20.858729 10.792601
2.9314081 21.432214 10.121827
2.9826179 21.983767 9.441846
3.0608835 22.518039 8.7858535
3.132308 23.073956 8.1133644
3.2241638 23.669842 7.3492544
3.336766 24.293688 6.437683
3.4359928 24.891528 5.5351144
3.5447258 25.387266 4.5145494
3.6945664 25.770319 3.3372473
3.0104067 7.4976093 23.757914
2.9054796 8.2871196 23.270577
2.8109514 9.0154437 22.781194
2.7245923 9.8261307 22.221028
2.6067923 10.606046 21.637783
2.5035726 11.194401 21.09292
2.3982791 11.81142 20.505327
2.316333 12.341107 19.959298
2.2252434 12.863491 19.415384
2.1955572 13.542764 18.740448
2.1501703 14.234129 18.016437
2.1025182 14.942675 17.269868
2.03943 15.692822 16.498451
1.9912546 16.461532 15.707293
2.007628 17.144416 15.020387
2.0244004 17.787782 14.305516
2.0050234 18.431203 13.547874
2.0114438 19.032165 12.842104
2.0257073 19.607256 12.175886
2.0684753 20.208115 11.49353
2.114451 20.808838 10.801814
2.1852077 21.361688 10.136556
2.2908909 21.878218 9.5042476
2.3897413 22.400162 8.8454365
2.4880769 22.957211 8.1659318
2.5670573 23.524444 7.4515326
2.7027912 24.143768 6.5539
2.8384579 24.728124 5.6407691
2.975341 25.188973 4.633273
3.1197487 25.562651 3.4505277
2.1319004 7.7258808 23.771324
2.0319622 8.4506044 23.304265
1.9151257 9.1798094 22.804699
1.8004663 9.7701529 22.328343
1.7354949 10.378093 21.805294
1.6251905 10.972477 21.252478
1.5167154 11.59611 20.663107
1.4208198 12.13817 20.137674
1.4300337 12.81738 19.478451
1.4191324 13.526264 18.772188
1.3717381 14.217256 18.035965
1.3158757 14.923835 17.279612
1.2464284 15.679096 16.499637
1.1991938 16.405294 15.759383
1.1927608 17.08288 15.05549
1.1868612 17.749955 14.292553
1.193657 18.388371 13.540574
1.2310402 18.974909 12.861071
1.2739981 19.554391 12.195789
1.3157413 20.144522 11.515962
1.4116983 20.733821 10.82622
1.5150758 21.282205 10.165272
1.625975 21.77653 9.5552691
1.73083 22.291201 8.909762
1.8339909 22.828849 8.2301025
1.9393759 23.371209 7.5168966
2.0731016 23.953394 6.6509683
2.2302611 24.524278 5.7342585
2.4124864 24.98245 4.7465202
2.5412809 25.35378 3.5390822
1.2340682 7.8898757 23.78262
1.1247649 8.4613315 23.379026
1.0156473 8.9972055 22.941381
0.91483728 9.5411388 22.483981
0.81577938 10.103704 21.989538
0.73819328 10.747793 21.404817
0.63668614 11.381473 20.815156
0.61874878 12.063051 20.195387
0.61406452 12.767593 19.534482
0.61010347 13.488866 18.805164
0.6164835 14.211433 18.042718
0.57409769 14.926366 17.269497
0.53443571 15.672623 16.49121
0.49672826 16.356262 15.757421
0.48136441 17.03184 15.027121
0.46947531 17.708143 14.247497
0.47199674 18.3233 13.529156
0.50018201 18.915244 12.867928
0.51928185 19.495904 12.215438
0.59468922 20.063024 11.54961
0.68970288 20.62817 10.86622
0.81767088 21.151662 10.230775
0.95590191 21.657007 9.5956156
1.0834584 22.146263 8.9633005
1.202629 22.669236 8.2796602
1.3236996 23.192124 7.571639
1.4458125 23.738857 6.7632557
1.6312572 24.290314 5.8328222
1.8173244 24.756372 4.8012885
1.9622638 25.126477 3.6042024
0.33966365 7.7089858 23.920046
0.21303448 8.2327697 23.536555
0.12313048 8.7687611 23.097793
0.027032053 9.3148685 22.641445
-0.080194922 9.8767177 22.13496
-0.16071238 10.490041 21.573822
-0.12955672 11.285826 20.876161
-0.10985425 12.003091 20.233698
-0.10473409 12.727425 19.566231
-0.08820904 13.457631 18.816944
-0.093162061 14.205909 18.025653
-0.10315881 14.931294 17.250822
-0.16644064 15.665164 16.451227
-0.21898701 16.321383 15.733228
-0.24343714 16.979223 14.984988
-0.25074783 17.649348 14.202219
-0.22298966 18.241483 13.504253
-0.19816996 18.830533 12.83918
-0.15890276 19.394833 12.192003
-0.081895344 19.933591 11.550959
0.0083391667 20.488833 10.879918
0.13763468 20.984305 10.269486
0.28434472 21.485772 9.6344376
0.42958152 21.974473 9.0067417
0.57662165 22.494766 8.3197264
0.70537918 22.992334 7.6319382
0.83165391 23.521094 6.8606383
1.012742 24.0511 5.923304
1.1927994 24.499508 4.8267888
1.3667238 24.878849 3.621501
-0.57454368 7.4082342 24.057436
-0.65151666 7.9505456 23.682298
-0.71391488 8.5271813 23.242684
-0.778494 9.0874409 22.781004
-0.85658657 9.6687567 22.248407
-0.87529585 10.380556 21.617053
-0.84292146 11.177707 20.932262
-0.79736704 11.937107 20.253651
-0.78801955 12.674645 19.569852
-0.79405271 13.424581 18.797808
-0.7929041 14.17458 18.004173
-0.83497455 14.920377 17.177331
-0.88032949 15.610811 16.398271
-0.92567059 16.259251 15.672007
-0.95269971 16.901186 14.920931
-0.94536678 17.547861 14.153252
-0.91369623 18.145181 13.472427
-0.88092835 18.734281 12.802354
-0.81603641 19.270132 12.164806
-0.73174349 19.789286 11.535437
-0.62117909 20.304871 10.890142
-0.49691641 20.799879 10.276707
-0.35712061 21.295437 9.6535743
-0.21829534 21.776291 9.0395954
-0.071008274 22.267319 8.3829459
0.08420933 22.772095 7.6979657
0.22180495 23.291797 6.9082777
0.37624479 23.793992 6.0038661
0.5623287 24.223495 4.8650622
0.74690747 24.605037 3.6241581
-1.3636811 7.0494867 24.127139
-1.432346 7.6270961 23.761144
-1.4923803 8.215821 23.340941
-1.5543737 8.8116321 22.876808
-1.5667193 9.5238195 22.263457
-1.5474527 10.28681 21.600786
-1.5311121 11.061301 20.92723
-1.4998871 11.819935 20.255084
-1.4706482 12.601615 19.530691
-1.4933 13.380312 18.759243
-1.5322691 14.144935 17.928683
-1.5867901 14.895116 17.075048
-1.6226207 15.542286 16.341361
-1.6379968 16.189961 15.602182
-1.6558128 16.820256 14.862275
-1.6439296 17.44247 14.122741
-1.6073421 18.04317 13.44029
-1.543805 18.604797 12.781643
-1.4656616 19.126847 12.146874
-1.3677548 19.631744 11.51998
-1.2526094 20.125926 10.897523
-1.1157374 20.610546 10.282959
-0.97747238 21.097317 9.6605558
-0.83155817 21.564026 9.0495252
-0.68912879 22.034535 8.404736
-0.54740033 22.521261 7.7155144
-0.39899451 23.027632 6.9350991
-0.26400474 23.525094 6.0592343
-0.071294688 23.945652 4.8781928
0.11278894 24.319705 3.6327034
-2.1522244 6.6117749 24.160236
-2.2267158 7.2181618 23.800234
-2.2869378 7.8192904 23.38769
-2.2925304 8.5432783 22.86593
-2.2633847 9.3734821 22.238029
-2.2379053 10.181071 21.584311
-2.2292902 10.960948 20.896395
-2.2049711 11.72944 20.218647
-2.2115523 12.515414 19.480956
-2.2397266 13.335233 18.674674
-2.2877912 14.11363 17.828955
-2.3435574 14.835125 17.009162
-2.3625699 15.476018 16.273593
-2.3681654 16.108109 15.531769
-2.3708973 16.726823 14.804219
-2.3376758 17.338144 14.094857
-2.2884744 17.925033 13.417109
-2.2034303 18.467959 12.763763
-2.1081978 18.969418 12.13189
-2.0002468 19.460648 11.517136
-1.8708454 19.937158 10.901061
-1.7373171 20.415276 10.288747
-1.6046212 20.886034 9.6537915
-1.46414 21.343369 9.0373166
-1.3194164 21.795059 8.3989427
-1.1602457 22.24938 7.7128785
-1.0068255 22.733503 6.9365972
-0.87765519 23.216275 6.0278249
-0.69073681 23.647033 4.8655344
-0.52261044 24.005853 3.5995345
-2.9253769 6.1529164 24.155137
-3.0126549 6.77542 23.805858
-3.0596753 7.4774978 23.369992
-3.0356024 8.2932547 22.78192
-3.0054096 9.1261944 22.155643
-2.9806752 9.9616626 21.513103
-2.9650812 10.822534 20.826263
-2.9768356 11.636758 20.112358
-3.0015806 12.447935 19.367114
-3.0301989 13.261653 18.563151
-3.0704948 14.067915 17.722025
-3.1004298 14.758038 16.953926
-3.1043512 15.389322 16.208475
-3.0944524 16.012247 15.473662
-3.0922023 16.618821 14.751938
-3.0444561 17.222411 14.068878
-2.9482179 17.786065 13.40322
-2.8509712 18.308075 12.749088
-2.7494237 18.811639 12.113583
-2.6218005 19.271858 11.511786
-2.4997854 19.742758 10.889682
-2.3729979 20.203733 10.270245
-2.2364778 20.66446 9.6409751
-2.0930086 21.112521 9.0125464
-1.9337796 21.55404 8.3670067
-1.7791154 21.984497 7.6786151
-1.62529 22.433355 6.9047787
-1.495134 22.871127 5.9379446
-1.3538536 23.260353 4.8133967
-1.1728395 23.621461 3.5238009
-3.6313553 5.7125007 24.096731
-3.730362 6.3990186 23.73922
-3.7634803 7.2196927 23.266656
-3.7794375 8.0401371 22.69605
-3.7547877 8.877162 22.060529
-3.7338914 9.7238318 21.400922
-3.7737116 10.639447 20.654413
-3.8231214 11.477657 19.927356
-3.854988 12.317496 19.163906
-3.9042394 13.122466 18.380035
-3.9300114 13.927683 17.600918
-3.8986648 14.639653 16.86671
-3.875277 15.280627 16.136138
-3.854388 15.894051 15.412947
-3.8244093 16.505878 14.712419
-3.7510166 17.062584 14.051548
-3.6337954 17.609704 13.389059
-3.5037923 18.140577 12.725506
-3.392464 18.628556 12.087356
-3.2673893 19.08062 11.488253
-3.137866 19.532937 10.875415
-2.999335 19.98592 10.253352
-2.8589033 20.431002 9.6202482
-2.7103522 20.864545 8.9825571
-2.5571122 21.294489 8.318146
[...]
POINT_DATA 900
VECTORS normals float
0.29656468 0.46445643 0.83446367
0.25848173 0.50802266 0.8216448
0.22104337 0.54551054 0.80842939
0.19456341 0.57501106 0.79467438
0.16912685 0.60308934 0.77953791
0.15068085 0.63006702 0.76178136
0.12252894 0.65724504 0.74365019
0.10872377 0.6747553 0.72998933
0.088449393 0.68875897 0.71957472
0.076727214 0.70198723 0.70804439
0.062627186 0.71407846 0.69725876
0.050006883 0.72299978 0.68903601
0.04342573 0.72559245 0.68675309
0.036200284 0.72546924 0.68730192
0.032037853 0.723358 0.6897295
0.02288511 0.72822208 0.68495903
0.0097902783 0.73683475 0.676002
0.0051793776 0.7429721 0.66930234
-0.0040692223 0.74711105 0.66468679
-0.011448215 0.74889754 0.66258691
-0.023457019 0.75236876 0.6583244
-0.031558037 0.75775221 0.65177885
-0.051701577 0.76702652 0.63952894
-0.071919503 0.77995188 0.62169338
-0.089636644 0.7964338 0.59804554
-0.11454751 0.81453711 0.56868986
-0.1466826 0.84222593 0.51878676
-0.17382335 0.88123808 0.43955078
-0.21463512 0.91654899 0.33744586
-0.23203947 0.93364598 0.27287884
0.24375382 0.49961587 0.83124488
0.20740609 0.53982749 0.81582412
0.18470209 0.56555739 0.8037599
0.15273088 0.59973259 0.78548972
0.12494299 0.6238748 0.77147228
0.11403627 0.64332281 0.75705448
0.085722529 0.66944937 0.73789511
0.07491772 0.68422959 0.7254083
0.061702449 0.69297862 0.71831291
0.051977483 0.7077263 0.70457208
0.040666944 0.72028173 0.69248857
0.029006379 0.7267004 0.68634187
0.026425383 0.72915425 0.683839
0.020544549 0.72892809 0.68428193
0.0089780992 0.7280201 0.685497
-0.002357958 0.73400716 0.67913763
-0.014005124 0.74080193 0.67157751
-0.025415262 0.74797621 0.66323876
-0.03089805 0.75049982 0.66014796
-0.041019497 0.75220922 0.65764633
-0.053883605 0.75881639 0.64907183
-0.06405139 0.76249048 0.64382116
-0.082556061 0.7750423 0.62649336
-0.1032856 0.78554584 0.61012278
-0.12620038 0.79962431 0.58708979
-0.13527414 0.81244629 0.56712602
-0.16416966 0.84717878 0.50530826
-0.19175471 0.88462618 0.42504899
-0.23306613 0.91782058 0.32138071
-0.25013941 0.92734366 0.27832356
0.18589359 0.53988971 0.8209523
0.16127237 0.5705547 0.80526924
0.12990771 0.59349688 0.79428297
0.10230937 0.61758415 0.77982217
0.086832557 0.63601422 0.76677638
0.074505914 0.6530503 0.75364061
0.053253292 0.67148605 0.73910119
0.035590608 0.68978378 0.72314013
0.028393869 0.70073529 0.71285612
0.020747929 0.71179976 0.70207594
0.017529467 0.72145602 0.69223834
0.01056468 0.7286583 0.68479593
0.0034777733 0.73245841 0.68080289
-0.0019657193 0.73434703 0.67877138
-0.01443007 0.73516787 0.67773149
-0.027514824 0.74106741 0.67086662
-0.036910972 0.74583686 0.66510522
-0.050402821 0.75338711 0.65564276
-0.057673181 0.75402422 0.65430977
-0.062630389 0.75843381 0.64873384
-0.077009956 0.76190169 0.64309819
-0.0886924 0.7683224 0.63388827
-0.10762506 0.78260573 0.61314364
-0.12785273 0.79334662 0.59519309
-0.14185853 0.80326975 0.57847546
-0.15278035 0.81307121 0.56175918
-0.18852386 0.84456909 0.50116046
-0.21647949 0.88643967 0.40909821
-0.24465909 0.91771902 0.31294366
-0.27329198 0.92558317 0.26192992
0.12616102 0.58626632 0.80023446
0.099185317 0.60194774 0.79235169
0.074384913 0.61065121 0.78839837
0.055957822 0.62735426 0.7767209
0.039999404 0.64393422 0.76403453
0.027663039 0.65848875 0.75208199
0.014659985 0.67442019 0.7382022
0.002717182 0.68906206 0.72469725
-0.0023622216 0.70313353 0.71105391
-0.0075436803 0.71470105 0.69938937
-0.0066167283 0.7228059 0.69101943
-0.014080336 0.72974392 0.68357556
-0.021286136 0.73709032 0.67545892
-0.028980453 0.73798543 0.67419407
-0.044967455 0.7398136 0.67130751
-0.052462835 0.74589491 0.6639943
-0.06370021 0.75206186 0.65600705
-0.073596619 0.75578915 0.65066604
-0.082667674 0.75914653 0.64564898
-0.094379976 0.76284006 0.63966199
-0.10027456 0.76692092 0.63385906
-0.11913266 0.77526469 0.62029998
-0.13745928 0.78867381 0.59924834
-0.14633231 0.79665394 0.5864549
-0.16115705 0.8031794 0.57352529
-0.18018913 0.81438042 0.55164881
-0.20801576 0.84205673 0.49766445
-0.23566262 0.88392743 0.40390027
-0.27074041 0.9107247 0.31189768
-0.29335819 0.92148025 0.25458812
0.055388545 0.61130489 0.78945452
0.03363027 0.61569626 0.78726559
0.021681317 0.61973271 0.7845134
0.0070091435 0.6307319 0.77596916
-0.0076639085 0.64487152 0.76425257
-0.018893211 0.66124524 0.74993185
-0.026001461 0.67417164 0.73811688
-0.025885379 0.68970201 0.72363049
-0.033727936 0.70403111 0.70936776
-0.033590386 0.71478811 0.69853392
-0.032307268 0.72304586 0.69004415
-0.041833313 0.7325028 0.67947746
-0.046331735 0.7392763 0.67180646
-0.058021318 0.74266429 0.66714562
-0.070588886 0.74591032 0.66229526
-0.080467571 0.74985945 0.65668545
-0.091318625 0.75457117 0.64983325
-0.10185669 0.75843977 0.64373467
-0.10852558 0.76180858 0.63864692
-0.12045028 0.76724546 0.62994138
-0.13353423 0.77389921 0.61907077
-0.14999923 0.78105073 0.60618478
-0.16162293 0.79194135 0.58881825
-0.16961904 0.80074789 0.57448428
-0.1866126 0.80707624 0.56018183
-0.20203984 0.81640433 0.54098418
-0.23049154 0.83963886 0.49181321
-0.26781993 0.87584044 0.40146732
-0.29666104 0.90514977 0.30446036
-0.33083518 0.9162106 0.22606684
-0.012110473 0.61935535 0.78501738
-0.023506152 0.62024988 0.78405201
-0.039234453 0.62846271 0.77684959
-0.048191639 0.63548661 0.77060647
-0.052882633 0.64652333 0.76105914
-0.066347106 0.65962005 0.74866511
-0.064977398 0.67152913 0.73812368
-0.069658594 0.68535895 0.72486605
-0.0557363 0.70300091 0.70900155
-0.060197628 0.71232954 0.6992588
-0.061838622 0.72353017 0.68751733
-0.072264612 0.73383577 0.67547234
-0.083870942 0.74124007 0.6659796
-0.09726642 0.74537711 0.65950906
-0.099928374 0.74655341 0.65777832
-0.11062282 0.7522637 0.64950898
-0.11447841 0.75587161 0.64463385
-0.12625908 0.76022347 0.6372746
-0.13374503 0.76512902 0.62983319
-0.14781383 0.77077467 0.61972371
-0.16154323 0.78029961 0.60418235
-0.18165278 0.78582257 0.5911727
-0.18949165 0.793304 0.57858592
-0.19807839 0.80442201 0.56006266
-0.2119911 0.81274562 0.54268253
-0.22992388 0.82138759 0.52197456
-0.26228548 0.84054039 0.4740234
-0.29354377 0.87197214 0.39178647
-0.33090938 0.89978265 0.28441198
-0.35935535 0.90763046 0.2169578
-0.09818648 0.60624127 0.78919638
-0.089970519 0.61538956 0.78307152
-0.086379089 0.61951995 0.78021387
-0.1011581 0.63057118 0.7695109
-0.098477756 0.64353452 0.75905563
-0.10581901 0.65702097 0.74640859
-0.10254874 0.66721741 0.73777007
-0.095749307 0.68253939 0.72454955
-0.094297853 0.69471172 0.71308032
-0.094228061 0.71021516 0.69764998
-0.099778546 0.7239578 0.68259017
-0.10213264 0.73491979 0.67041914
-0.1132037 0.74199819 0.66077501
-0.12529312 0.74597715 0.6540793
-0.1303425 0.74842651 0.65028347
-0.13215783 0.75276288 0.64488942
-0.13803287 0.75783853 0.63767365
-0.15009273 0.7620316 0.62990476
-0.15998311 0.76891057 0.61901691
-0.17739245 0.77577311 0.6055642
-0.19103774 0.78511665 0.5891489
-0.20719272 0.78831481 0.57933664
-0.21644398 0.79542777 0.56608008
-0.22686522 0.80600454 0.54670729
-0.24350431 0.8165413 0.52341757
-0.25332827 0.82318524 0.50812484
-0.28556842 0.84174998 0.45815679
-0.32975524 0.86809653 0.37103895
-0.36488706 0.89171399 0.26777527
-0.39469937 0.89992329 0.18533884
-0.19291301 0.57222632 0.79708319
-0.18043094 0.5950593 0.78316608
-0.15777985 0.60700436 0.77887819
-0.15615518 0.62421816 0.76548498
-0.1598123 0.63473731 0.75602155
-0.15523233 0.64992826 0.74397324
-0.15138032 0.66166988 0.7343548
-0.13995813 0.67815736 0.72146678
-0.13650267 0.69464384 0.7062839
-0.13643382 0.70956106 0.69130956
-0.13601599 0.72347218 0.67682173
-0.13760725 0.73641625 0.6623861
-0.14287645 0.74310883 0.65373969
-0.14364062 0.74612744 0.650124
-0.15140051 0.74703702 0.64731258
-0.15411806 0.75176149 0.64117258
-0.16094965 0.75707264 0.63319526
-0.17061509 0.76474824 0.62132972
-0.18501316 0.7716174 0.60858584
-0.20050376 0.7792018 0.59383734
-0.22095717 0.78643441 0.57680053
-0.23303013 0.79024186 0.56675811
-0.24470655 0.79843094 0.55011521
-0.25671137 0.80609956 0.5332005
-0.27688775 0.81685673 0.50604176
-0.29538034 0.83076895 0.47177686
-0.32085309 0.84300231 0.43174113
-0.37298844 0.85971567 0.34895355
-0.40604545 0.87474642 0.26447269
-0.4308692 0.88498549 0.17650045
-0.3180972 0.49173013 0.81056502
-0.26995556 0.55166548 0.78916994
-0.24502692 0.58021293 0.77673339
-0.22633451 0.59951002 0.76769814
-0.20954068 0.62578169 0.75132548
-0.20208574 0.6398202 0.74147924
-0.19657874 0.65326682 0.73116295
-0.18692071 0.66869141 0.71966135
-0.1798569 0.68973805 0.70136504
-0.17220267 0.70101521 0.69204329
-0.16591891 0.71717866 0.67684983
-0.16485542 0.73342863 0.65947338
-0.16824129 0.73929962 0.65202066
-0.16355062 0.74242029 0.649664
-0.16799326 0.7468021 0.64347874
-0.17425121 0.75200052 0.63571356
-0.18289804 0.76000159 0.62365526
-0.19800978 0.77003934 0.60649117
-0.21229191 0.77544719 0.59465435
-0.23157228 0.78440934 0.57539227
-0.2468185 0.78873547 0.5630071
-0.26873893 0.79157899 0.54880059
-0.280009 0.79863932 0.53270086
-0.29047066 0.8059755 0.51578123
-0.3253139 0.81518274 0.47921599
-0.32649297 0.82507075 0.46115138
-0.3706151 0.83596145 0.40473806
-0.4344113 0.8421164 0.31957283
-0.47266276 0.85189861 0.22551868
-0.49101534 0.85897764 0.14512528
-0.40907328 0.39934638 0.82047639
-0.36680793 0.46508691 0.80569604
-0.34030241 0.51994823 0.7834846
-0.28823305 0.5751563 0.76558275
-0.25245774 0.6068309 0.75367191
-0.23658242 0.62794213 0.74142933
-0.23114587 0.64390679 0.72935288
-0.22225031 0.66254117 0.71529294
-0.21697838 0.67641992 0.70382986
-0.21038737 0.69065464 0.69190558
-0.19689247 0.71091229 0.67515707
-0.18955367 0.72378053 0.6634841
-0.18811043 0.73277824 0.65394993
-0.18537236 0.74095356 0.64546488
-0.18954771 0.74703782 0.63718612
-0.20571524 0.75323022 0.62476034
-0.2092843 0.76443588 0.6097851
-0.23191229 0.77308361 0.59038837
-0.25459915 0.78178221 0.56920633
-0.27120427 0.7861557 0.55534446
-0.28442456 0.79232315 0.53974689
-0.31154164 0.79568127 0.51945464
-0.31682672 0.80068201 0.50845762
-0.3406629 0.80602291 0.48402051
-0.3762831 0.81207903 0.44602542
-0.39249075 0.82290756 0.41082133
-0.44261614 0.82644996 0.34795318
-0.50017541 0.82287659 0.26962692
-0.52428611 0.82813295 0.19829243
-0.52977319 0.83774765 0.13236026
-0.45195827 0.33366441 0.82728579
-0.44217875 0.38921653 0.80807701
-0.39308269 0.47520875 0.78718654
-0.36420175 0.53425867 0.76283993
-0.32158646 0.57908106 0.74916438
-0.28349324 0.61397266 0.73666081
-0.27216753 0.63255055 0.72512388
-0.26842004 0.64725855 0.7134473
-0.26464307 0.66329967 0.69999828
-0.25458191 0.67982473 0.68776914
-0.23898879 0.69842853 0.67459762
-0.22265679 0.72021925 0.65704504
-0.22685914 0.7287417 0.64611955
-0.23026685 0.74091035 0.63089542
-0.23915311 0.7458852 0.62165992
-0.26115889 0.75213287 0.60505551
-0.26576074 0.76441571 0.58740092
-0.28969093 0.77356332 0.56363015
-0.3105402 0.78237657 0.53986265
-0.31590777 0.79076771 0.5242983
-0.33228087 0.79189572 0.51233836
-0.35809718 0.79441714 0.49057906
-0.37532194 0.79939914 0.46914225
-0.40738184 0.79953579 0.44134176
-0.42702105 0.80560112 0.41068217
-0.46106251 0.81083879 0.36050217
-0.50279621 0.81190054 0.29667066
-0.5493367 0.80355189 0.22920198
-0.56800649 0.80364444 0.17755068
-0.57027107 0.8129885 0.1176461
-0.4786544 0.295994 0.82660603
-0.47828772 0.34854228 0.80607639
-0.46363191 0.41762829 0.7814295
-0.42228309 0.48509667 0.7657403
-0.39798102 0.53983403 0.74174816
-0.35802263 0.58079812 0.73109052
-0.32684343 0.6107597 0.72121145
-0.32196515 0.62651973 0.70979678
-0.31876133 0.64344835 0.69596367
-0.30343197 0.66309906 0.68427237
-0.29954089 0.67734748 0.67191937
-0.2812479 0.70121427 0.65513217
-0.28706418 0.72238533 0.6290895
-0.28951513 0.73253353 0.61609709
-0.31243937 0.7425734 0.59242416
-0.31768311 0.75407323 0.57484867
-0.34461581 0.76387583 0.54564977
-0.35875557 0.77081007 0.52644685
-0.37950936 0.77532019 0.50482793
-0.39118404 0.78198036 0.48526463
-0.41377932 0.78270748 0.46492545
-0.42260391 0.78759562 0.44844073
-0.43291744 0.79313707 0.42838776
-0.4723625 0.79182021 0.38716202
-0.49334646 0.79593706 0.35084678
-0.52721407 0.79724438 0.29401825
-0.55972091 0.79198112 0.24388197
-0.58816641 0.78582047 0.1911713
-0.59295036 0.79071306 0.15225876
-0.59410047 0.79651404 0.11229437
-0.50915888 0.26777129 0.8179583
-0.50565342 0.32780202 0.79803537
-0.50047812 0.38936345 0.77325142
-0.49320454 0.43769133 0.7517816
-0.46393758 0.49648559 0.73366476
-0.43727309 0.53362955 0.72390037
-0.408067 0.57120642 0.71218295
-0.38852808 0.59496614 0.70360587
-0.37842208 0.61803476 0.68907892
-0.36358621 0.64288784 0.67416637
-0.3565605 0.6610565 0.66020369
-0.36047118 0.68116841 0.63723632
-0.35391081 0.70770809 0.61147069
-0.37674722 0.72526161 0.57624399
-0.38641866 0.73905539 0.55179503
-0.40616516 0.75229305 0.51873405
-0.41717031 0.75861719 0.50046868
-0.43315738 0.76558925 0.47565511
-0.45047863 0.76989336 0.45203231
-0.45978803 0.76984543 0.44264319
-0.4797671 0.7743477 0.41256414
-0.49481179 0.7738632 0.39534421
-0.510319 0.77950153 0.36325183
-0.54699415 0.77686412 0.31189668
-0.56193538 0.77805433 0.28082039
-0.58749268 0.77619777 0.22884356
-0.59896399 0.77534065 0.20022242
-0.61358855 0.77173903 0.16711659
-0.613946 0.77704538 0.13881926
-0.61107172 0.78309361 0.11556706
-0.53836659 0.25340449 0.80370864
-0.53687575 0.30503661 0.78658572
-0.54489339 0.35840907 0.75804626
-0.53837069 0.40757288 0.73759159
-0.523973 0.45647649 0.7190838
-0.50161725 0.48447045 0.71670671
-0.48088161 0.51873067 0.70687436
-0.47188125 0.53805054 0.69844807
-0.44629115 0.58057645 0.68099574
-0.42827947 0.61511582 0.66197373
-0.43527364 0.64161975 0.63155439
-0.43592128 0.67086275 0.59992984
-0.44788841 0.69442284 0.56318105
-0.45350566 0.71407084 0.5333249
-0.46488009 0.72903309 0.50239154
-0.46827328 0.74385392 0.47686631
-0.4883124 0.74735039 0.45057563
-0.50527491 0.75076049 0.4255067
-0.50970582 0.7587345 0.40561303
-0.52761856 0.75839622 0.38269286
-0.53465551 0.76359847 0.36202329
-0.55280474 0.76421421 0.33224021
-0.5695192 0.76562232 0.29911595
-0.59062493 0.76614416 0.25334821
-0.60387327 0.76625642 0.21951805
-0.62090783 0.76155762 0.18575109
-0.62936618 0.75951661 0.1644163
-0.63012437 0.76192895 0.14969151
-0.63321321 0.76166381 0.13751097
-0.63135463 0.7673712 0.11194983
-0.56400905 0.23820198 0.79066656
-0.57718436 0.28732162 0.76439813
-0.58552607 0.33492136 0.73823229
-0.585922 0.36982432 0.72105851
-0.57694658 0.39893754 0.7127282
-0.56039926 0.42874095 0.70861405
-0.55163356 0.45915642 0.69633024
-0.53664368 0.49452086 0.68371243
-0.52214227 0.536013 0.66336831
-0.50222698 0.58118244 0.64030854
-0.49324236 0.6214734 0.60867297
-0.4876001 0.66072385 0.57069268
-0.49146736 0.69210139 0.52863551
-0.49630786 0.71168674 0.4971725
-0.50410502 0.722635 0.4729448
-0.51275652 0.73641509 0.44133158
-0.53066483 0.7413754 0.41080087
-0.539436 0.74495041 0.39250182
-0.54539299 0.74800648 0.37819678
-0.5614599 0.74883382 0.35215151
-0.57863672 0.75120348 0.31760491
-0.59114132 0.75465751 0.28468223
-0.60674965 0.75481166 0.24922723
-0.61724235 0.75694797 0.2145732
-0.62410339 0.7579471 0.18976605
-0.63338673 0.7557983 0.16610292
-0.63748524 0.7560712 0.14821914
-0.63950903 0.75589149 0.14020076
-0.64344792 0.75503608 0.12607652
-0.65033879 0.75247979 0.10408467
-0.59499102 0.22187752 0.77249987
-0.61167312 0.27747893 0.74085183
-0.62508012 0.31846607 0.7126389
-0.62323223 0.34409474 0.70226804
-0.61932166 0.36172166 0.69684871
-0.61453587 0.38217912 0.69013389
-0.60679103 0.41648748 0.67701021
-0.58801502 0.45300946 0.67009012
-0.57159528 0.50026931 0.65039177
-0.5618717 0.54250684 0.62448901
-0.55394952 0.58995442 0.58744677
-0.54955965 0.62803294 0.55096173
-0.54742384 0.67203233 0.49869799
-0.53705337 0.7005695 0.46986813
-0.54316428 0.71748957 0.4360978
-0.54949871 0.7290633 0.40806602
-0.55928148 0.73672866 0.38004618
-0.56914842 0.73873953 0.36101799
-0.57856972 0.74398397 0.33428272
-0.58812757 0.7433848 0.3185671
-0.60282361 0.74569216 0.28380787
-0.614408 0.74786929 0.25138483
-0.62532277 0.75029574 0.21454077
-0.63501364 0.75052975 0.18292831
-0.63894431 0.75189301 0.16250249
-0.64340637 0.75045663 0.1511393
-0.6449923 0.75129761 0.13977424
-0.64748048 0.75124826 0.12804329
-0.65292247 0.74917882 0.11146006
-0.65786973 0.74776429 0.08975515
-0.63210004 0.21465895 0.74456099
-0.64656916 0.26529943 0.7152374
-0.65067628 0.30214955 0.69665345
-0.65215295 0.31744374 0.68842283
-0.64723494 0.34081666 0.68185844
-0.64551175 0.35602569 0.67569246
-0.64307822 0.37916594 0.66534471
-0.64075466 0.40807903 0.65031145
-0.63583151 0.44660475 0.62949383
-0.63349331 0.4920607 0.59712854
-0.62599625 0.54190072 0.5607783
-0.6194513 0.58930726 0.51864924
-0.60925437 0.62971723 0.48193913
-0.59814324 0.67109429 0.43801497
-0.58569884 0.7027488 0.40385765
-0.58243973 0.72052673 0.37630465
-0.58368094 0.72915273 0.35728541
-0.594425 0.73649181 0.32286024
-0.60357739 0.73824824 0.30113762
-0.61841169 0.73773241 0.27077274
-0.62719903 0.73989548 0.24326129
-0.63693213 0.74204937 0.20899809
-0.64388311 0.74405985 0.17829605
-0.64668401 0.74527912 0.16235402
-0.65024786 0.74468369 0.15041254
-0.65286776 0.74402293 0.14210404
-0.6542188 0.74515955 0.12936386
-0.65547378 0.74590077 0.11826312
-0.6596817 0.74458483 0.10204651
-0.66298171 0.74459578 0.077668385
-0.66096746 0.2071568 0.72125452
-0.66516915 0.2556246 0.70157399
-0.67058765 0.28544394 0.68471451
-0.6712876 0.30231202 0.67674249
-0.66681043 0.32143107 0.6723436
-0.66698404 0.3389467 0.66351144
-0.67289873 0.36050616 0.64594319
-0.67698603 0.39044586 0.62389258
-0.68067896 0.42791567 0.59461276
-0.69053719 0.45726286 0.56041865
-0.68880639 0.49605266 0.52865633
-0.67916703 0.54192632 0.49502324
-0.66682866 0.59048051 0.45461226
-0.65192587 0.63199318 0.41901943
-0.63643758 0.67126598 0.37993315
-0.62657632 0.69703349 0.3486351
-0.61857894 0.71692847 0.32151775
-0.62118704 0.72804391 0.28996332
-0.62855896 0.7310851 0.26538314
-0.63633696 0.73395426 0.23745823
-0.64612346 0.73488409 0.20608214
-0.65050182 0.73648779 0.18556166
-0.65600285 0.73701438 0.1626962
-0.65927013 0.7372461 0.14775345
-0.66185668 0.73682437 0.13796946
-0.66486543 0.73616837 0.12653102
-0.6688989 0.7345711 0.11392784
-0.66768381 0.73714922 0.10396805
-0.66946012 0.73701681 0.092894354
-0.67571029 0.7347269 0.059933245
-0.67648485 0.21722287 0.70369203
-0.68170039 0.25251911 0.68667218
-0.68680623 0.27711639 0.67194026
-0.68509187 0.29082946 0.66788274
-0.68653197 0.30668871 0.65925404
-0.69083132 0.32082778 0.64793643
-0.70153346 0.34810103 0.62183316
-0.70907823 0.37405384 0.59773889
-0.71708106 0.4124751 0.56183542
-0.71941979 0.44388934 0.534226
-0.72031594 0.47325504 0.50712387
-0.71718405 0.50997114 0.47494891
-0.7109274 0.54658735 0.44252062
-0.69450583 0.58911158 0.41304866
-0.67846555 0.63402523 0.37107481
-0.66663236 0.67010959 0.32642676
-0.65883388 0.69144171 0.29638873
-0.64767091 0.71592279 0.2607239
-0.65167953 0.722145 0.23199221
-0.65533763 0.72599725 0.20847203
-0.65914561 0.72893565 0.18487802
-0.66198233 0.73196264 0.16127641
-0.66303863 0.734387 0.14510518
-0.66972766 0.73081197 0.13182836
-0.67375785 0.72888904 0.12153656
-0.67613653 0.72816719 0.11230284
-0.67852676 0.72774923 0.099912429
-0.6797382 0.72813647 0.088166042
-0.68359534 0.72586383 0.07628311
-0.68445115 0.72721844 0.051768303
-0.68941187 0.21953156 0.69030223
-0.69741862 0.24398424 0.67385381
-0.69863288 0.26775497 0.6634903
-0.70093142 0.27942552 0.65621378
-0.70668091 0.2936638 0.64371085
-0.71056946 0.31453131 0.6294133
-0.71954859 0.34755942 0.60120901
-0.73060693 0.38261104 0.56552835
-0.74081157 0.40316622 0.53726643
-0.73946237 0.43530273 0.51352404
-0.74343673 0.46143131 0.48413116
-0.74261321 0.4830318 0.4639029
-0.74100592 0.5100428 0.43676832
-0.73365938 0.54667615 0.40359522
-0.71640659 0.5951538 0.36407904
-0.70387884 0.63046208 0.32721879
-0.6930806 0.66265894 0.28376469
-0.68174248 0.69015378 0.24272403
-0.67629374 0.70489213 0.21390153
-0.67195819 0.71559081 0.19079303
-0.67190708 0.7214975 0.16727893