# vtk DataFile Version 2.0
Grain example
ASCII
DATASET UNSTRUCTURED_GRID
POINTS 900 float
-6.6449698 4.985682 22.293882
-5.8488841 4.9743603 22.892354
-5.0473894 4.9499947 23.487887
-4.3708395 4.9402187 23.935116
-3.7716953 4.9574499 24.281077
-3.200559 4.9689912 24.594241
-2.6602977 4.9908005 24.881048
-2.1662076 4.9914473 25.152007
-1.6933453 4.9888011 25.402951
-1.2142036 4.9783655 25.638075
-0.69604913 4.9395443 25.735306
-0.12116359 4.919465 25.815463
0.55614087 4.9410123 25.812792
1.3449904 4.9654063 25.725954
2.2098279 4.9650693 25.554264
3.0388688 4.9650371 25.267043
3.948911 4.9946171 24.8708
4.8835976 5.0199025 24.455549
5.8052628 5.0472029 23.998735
6.7298221 5.0408596 23.431882
7.65886 5.0147945 22.82607
8.5928358 4.9897951 22.186011
9.4327965 4.9706449 21.616159
10.205508 5.0055577 21.028667
10.948223 5.0864293 20.450623
11.679351 5.1662019 19.88855
12.424288 5.2369758 19.304624
13.187087 5.2387411 18.620888
13.940119 5.2371434 17.930033
14.664165 5.2542267 17.256848
-6.7683073 4.3847864 22.372309
-5.9850203 4.3954987 22.975078
-5.1792881 4.3706145 23.57989
-4.4592288 4.3702211 24.033525
-3.8200077 4.3816917 24.411039
-3.2092394 4.3732943 24.775233
-2.6592117 4.3984663 25.069161
-2.1176572 4.4166129 25.349687
-1.6327471 4.4277888 25.594526
-1.1518238 4.4095661 25.792977
-0.6523276 4.3643378 25.900316
-0.086983385 4.3414823 25.984809
0.56977375 4.35343 26.001656
1.3589409 4.3600121 25.915526
2.2649625 4.3404769 25.752258
3.0999602 4.3248753 25.493251
3.9931396 4.3444105 25.113238
4.9170406 4.3683955 24.687393
5.8370858 4.3757071 24.173237
6.7955006 4.3705385 23.5643
7.7245227 4.3584353 22.953073
8.6733767 4.3096539 22.297197
9.5024832 4.335623 21.664212
10.260174 4.410727 21.081743
10.999218 4.4829097 20.5015
11.73277 4.5647945 19.93184
12.505247 4.6065262 19.277046
13.253184 4.6467457 18.628162
14.000642 4.6676291 17.945218
14.743416 4.707102 17.251851
-6.8807269 3.7959706 22.443358
-6.0872281 3.791975 23.054392
-5.2961287 3.7807493 23.66498
-4.5895092 3.7763665 24.10414
-3.9069405 3.7744085 24.513661
-3.255248 3.7827203 24.896826
-2.6706728 3.7821262 25.234776
-2.118222 3.7932864 25.53143
-1.5865753 3.8164175 25.799197
-1.0989759 3.7955756 25.956651
-0.60621023 3.7580037 26.067591
-0.050075946 3.7397646 26.152386
0.5982658 3.722473 26.192872
1.390125 3.7225595 26.105227
2.3057739 3.6839028 25.934779
3.1671409 3.6601405 25.702619
4.035998 3.6752554 25.347869
4.9530963 3.6765903 24.876729
5.8813899 3.6731072 24.325156
6.8619922 3.6568822 23.689248
7.8030823 3.6066178 23.071853
8.7293221 3.6400548 22.361051
9.5538049 3.6971073 21.715454
10.306531 3.775248 21.131913
11.055906 3.8657737 20.550401
11.810338 3.9089609 19.913339
12.580557 3.955268 19.250846
13.333012 4.0024595 18.607046
14.063023 4.069123 17.971517
14.793446 4.1286822 17.273279
-6.9308869 3.2499297 22.482284
-6.1786586 3.2048484 23.12327
-5.3857243 3.1858736 23.742692
-4.7202345 3.2167061 24.163299
-3.994037 3.2088103 24.600632
-3.3462989 3.1928818 24.99095
-2.6931718 3.1891818 25.373471
-2.1369561 3.1836123 25.677419
-1.5921757 3.1952261 25.968937
-1.0505767 3.1664086 26.120636
-0.55103195 3.122127 26.23883
-0.0068533445 3.1060016 26.319735
0.64181987 3.0890831 26.372033
1.4375361 3.0631462 26.286472
2.3481387 3.0322452 26.117438
3.2263995 2.9862183 25.889777
4.0670977 2.9682556 25.5251
4.9855297 2.9756615 25.0387
5.9483251 2.9355162 24.451448
6.9404334 2.8862137 23.798549
7.8486831 2.9204549 23.132974
8.7565484 2.9577707 22.434816
9.5860334 3.0495541 21.783247
10.35624 3.127383 21.180048
11.125807 3.1953134 20.547766
11.880402 3.2451883 19.895416
12.649891 3.3020763 19.235974
13.404041 3.3619598 18.587636
14.105469 3.4555974 17.976676
14.829263 3.5509684 17.309663
-6.9764829 2.7006221 22.510229
-6.2190295 2.6570519 23.161284
-5.4717447 2.6179483 23.788007
-4.8126537 2.6275498 24.231386
-4.1149969 2.6525135 24.666912
-3.4268987 2.6383131 25.084585
-2.7660313 2.6168495 25.472108
-2.1642443 2.6175333 25.800174
-1.6144468 2.6067466 26.071196
-1.0607288 2.5421926 26.237282
-0.51729376 2.4924899 26.394863
0.041709483 2.4432116 26.494216
0.69082838 2.4082228 26.54766
1.4695697 2.3931458 26.470397
2.3845179 2.3562829 26.257583
3.2838494 2.3072259 26.025265
4.1361785 2.2478742 25.649173
5.0505876 2.2131343 25.171298
6.0136129 2.170872 24.562469
6.9673496 2.1963284 23.863744
7.8783309 2.2374851 23.192421
8.7687776 2.2904036 22.518461
9.6085075 2.3698764 21.856662
10.40539 2.4568398 21.201771
11.181702 2.5139465 20.533888
11.947922 2.5704395 19.879146
12.721811 2.6254344 19.218851
13.445118 2.7168687 18.587385
14.152519 2.8124411 17.9651
14.881073 2.9325131 17.315042
-7.0534769 2.1524876 22.493827
-6.2824646 2.113709 23.170449
-5.5201664 2.0743607 23.806328
-4.8585547 2.0758718 24.271558
-4.2135104 2.0686817 24.730077
-3.5213611 2.0806133 25.162304
-2.8469624 2.0538451 25.559086
-2.2213485 2.0434539 25.910493
-1.6339419 2.0186194 26.156384
-1.0743633 1.9663825 26.32697
-0.52210608 1.8956813 26.482547
0.059113928 1.8154491 26.62591
0.74032572 1.7313009 26.687737
1.500827 1.6977717 26.595109
2.421229 1.6456861 26.358132
3.3400995 1.5795332 26.115565
4.2292225 1.4955039 25.739288
5.1138432 1.4467365 25.2756
6.0220247 1.4721243 24.630093
6.9735491 1.4907105 23.936414
7.8944471 1.5247756 23.256505
8.7762856 1.5957936 22.603884
9.6282221 1.660406 21.909242
10.446839 1.7342646 21.206444
11.234209 1.8071953 20.529087
12.002971 1.8746643 19.872694
12.753123 1.9608569 19.221794
13.463795 2.0568244 18.594807
14.166067 2.16487 17.976422
14.918196 2.2954304 17.301319
-7.1298343 1.6010499 22.480878
-6.3526357 1.5577304 23.150763
-5.6007123 1.5264021 23.793664
-4.8970466 1.5342721 24.28687
-4.2548488 1.5258294 24.751532
-3.5998751 1.5085351 25.214774
-2.9219893 1.4929183 25.634497
-2.2971515 1.4679762 25.99357
-1.6870665 1.4221514 26.2213
-1.0975796 1.3766837 26.393949
-0.52047664 1.28971 26.544282
0.079560782 1.1630154 26.666265
0.74700825 1.0695661 26.739036
1.5342301 0.98932002 26.681622
2.4441001 0.91474476 26.442464
3.3786368 0.83478571 26.173686
4.2926587 0.77080091 25.814468
5.1347483 0.74554672 25.321142
6.0301736 0.74807396 24.689926
6.9638665 0.78007954 24.012808
7.8573922 0.84217506 23.353676
8.7585466 0.91722533 22.682498
9.6408746 0.96523415 21.937763
10.46702 1.0378812 21.228931
11.272627 1.1180785 20.540022
12.010165 1.1996536 19.888145
12.761587 1.2993962 19.231263
13.472378 1.4042287 18.610212
14.182768 1.5088303 17.977107
14.936352 1.6343527 17.285593
-7.1975327 1.0501439 22.463167
-6.4286402 1.0116243 23.13515
-5.6730012 0.97874429 23.764182
-4.9778529 0.98982789 24.260053
-4.3120264 0.97981793 24.752911
-3.6416151 0.9533587 25.231908
-3.0099166 0.92885485 25.673315
-2.374253 0.90109979 26.045695
-1.7456989 0.82877557 26.272609
-1.1433702 0.75103512 26.424892
-0.52198576 0.65262426 26.562516
0.11070887 0.50787429 26.674182
0.72831315 0.38457489 26.728906
1.5022542 0.28247843 26.69716
2.4486054 0.19643445 26.519672
3.3849425 0.11951005 26.215855
4.2925248 0.093086255 25.844559
5.1550943 0.082560217 25.333261
6.0355628 0.077491053 24.723572
6.928546 0.12796702 24.091306
7.8177941 0.1808466 23.431872
8.7339526 0.22521865 22.721169
9.6440706 0.27622409 21.976435
10.474796 0.34556766 21.256681
11.269114 0.44265244 20.555837
12.026158 0.52892031 19.896737
12.752213 0.62777767 19.232266
13.461071 0.7344363 18.583255
14.18769 0.84021102 17.915551
14.933365 0.96562489 17.207403
-7.2547114 0.51622535 22.456811
-6.5187413 0.46995108 23.109641
-5.7553612 0.44147722 23.729494
-5.0627557 0.44561581 24.224438
-4.3891876 0.42590319 24.717141
-3.7115915 0.39698675 25.212885
-3.0695653 0.3757553 25.674007
-2.4581881 0.33178868 26.03953
-1.8247444 0.20910737 26.263561
-1.1845102 0.077454313 26.428188
-0.53821411 -0.064680693 26.544199
0.094360629 -0.1941095 26.63446
0.71333377 -0.31002949 26.710062
1.4738744 -0.42671794 26.687735
2.3881392 -0.5277347 26.503155
3.3356113 -0.56973037 26.211867
4.2653693 -0.58847091 25.862621
5.1702526 -0.59476412 25.344661
6.0141952 -0.55912222 24.776915
6.8871118 -0.51352005 24.152934
7.7780173 -0.46153128 23.480538
8.6934315 -0.42125069 22.753849
9.5955263 -0.37609458 22.018622
10.443122 -0.30791762 21.255763
11.249592 -0.23364925 20.52705
12.006844 -0.15899577 19.841754
12.731182 -0.055618608 19.182119
13.438627 0.045838163 18.533453
14.176753 0.15742894 17.852264
14.939743 0.29196799 17.129435
-7.2914295 -0.024001164 22.452281
-6.5553526 -0.073513262 23.107406
-5.8428055 -0.1096799 23.692952
-5.1504821 -0.10496949 24.186936
-4.4620913 -0.12558717 24.67746
-3.7975618 -0.15924387 25.159992
-3.1669715 -0.19867253 25.597248
-2.5173198 -0.2974469 25.931052
-1.8792583 -0.44351259 26.202497
-1.2103423 -0.6445883 26.39262
-0.56555589 -0.80591031 26.495007
0.057534873 -0.93927455 26.579109
0.67814302 -1.0590275 26.65494
1.417971 -1.1380305 26.649924
2.2988939 -1.204527 26.45233
3.2449916 -1.2462032 26.174966
4.1849564 -1.2638904 25.863632
5.1628703 -1.2488558 25.368995
5.9950104 -1.2319268 24.792021
6.861732 -1.1629186 24.148501
7.7322381 -1.1267632 23.457342
8.6333662 -1.0887557 22.713291
9.4867581 -1.0291809 22.002238
10.374354 -0.95362191 21.228299
11.201063 -0.88629512 20.478644
11.964002 -0.80002079 19.786573
12.691399 -0.70388039 19.126672
13.403669 -0.61323623 18.483755
14.152451 -0.51023813 17.796507
14.927111 -0.38738221 17.060375
-7.3152521 -0.58033766 22.462581
-6.5926008 -0.62979877 23.112029
-5.8997061 -0.65737143 23.661928
-5.2353403 -0.66345199 24.137832
-4.5347336 -0.69283006 24.61434
-3.8773955 -0.7553695 25.066097
-3.2253528 -0.85167025 25.482845
-2.5846085 -1.0072008 25.766011
-1.9277735 -1.1814266 26.026989
-1.2676037 -1.362555 26.25401
-0.5897467 -1.5636711 26.440333
0.017156459 -1.6842626 26.527496
0.62914922 -1.7825393 26.571397
1.306841 -1.8547809 26.538697
2.185395 -1.8911023 26.373573
3.1279779 -1.9109569 26.103215
4.0619298 -1.9360996 25.789628
5.0634411 -1.9425892 25.263922
5.9444352 -1.9031956 24.722818
6.8140059 -1.8609689 24.071222
7.6595 -1.7871933 23.40253
8.5289377 -1.7320432 22.682775
[...]
POINT_DATA 900
VECTORS normals float
-0.61847756 0.25208981 0.74426892
-0.58054207 0.25413726 0.77355359
-0.5255952 0.26463542 0.80852815
-0.49250191 0.2667354 0.82842869
-0.47562363 0.27234356 0.83642761
-0.46226047 0.28613315 0.83931107
-0.44354968 0.2891473 0.8483263
-0.41284487 0.29840962 0.86052938
-0.35999407 0.30570499 0.88144695
-0.29614784 0.32292902 0.8988956
-0.23238777 0.32429146 0.91696836
-0.12596754 0.34181362 0.93128708
-0.019698984 0.36603166 0.93039388
0.10278221 0.38765818 0.9160551
0.21701428 0.36506728 0.90533457
0.30704275 0.36219478 0.88007937
0.36766461 0.34878814 0.86207283
0.41696004 0.33451766 0.84512854
0.46389141 0.30271051 0.83256898
0.50759885 0.26469451 0.81992696
0.53839167 0.24173425 0.80727874
0.56834023 0.20338838 0.7972594
0.58573541 0.18498516 0.78910995
0.59377503 0.17613549 0.78511623
0.59739419 0.17536988 0.78253791
0.61347039 0.16953312 0.77130577
0.62791677 0.15996188 0.76166445
0.64221777 0.14371028 0.75293007
0.65809355 0.12412678 0.74263411
0.67051181 0.10816514 0.73397154
-0.62671929 0.21673201 0.7484986
-0.5896581 0.21755168 0.77780113
-0.53894845 0.226306 0.81136932
-0.50036387 0.23873485 0.83225096
-0.48488868 0.24284249 0.8401848
-0.47104135 0.25268129 0.84514627
-0.45061969 0.2559505 0.85523753
-0.41305596 0.27025838 0.86968108
-0.36772771 0.27656809 0.88785496
-0.2933125 0.28309533 0.91314008
-0.22732136 0.28849831 0.93010415
-0.12775138 0.2995056 0.94550303
0.0052804216 0.31865086 0.94785745
0.1198611 0.33205378 0.93561402
0.22328842 0.32828758 0.91780692
0.31338226 0.3173133 0.89504404
0.38596963 0.304578 0.87078108
0.43739165 0.28002408 0.85456132
0.47934023 0.25938987 0.83842104
0.51864616 0.23188466 0.8229433
0.552003 0.19578373 0.81053156
0.58261982 0.16646478 0.79551469
0.59469842 0.15767193 0.78833581
0.60229833 0.14991728 0.7840673
0.60845348 0.15011295 0.77926277
0.62018291 0.14769303 0.77042841
0.63900062 0.12713933 0.75862625
0.65468673 0.11217272 0.74753098
0.66647603 0.10361564 0.73829093
0.68180454 0.091111525 0.72583831
-0.63558732 0.1799027 0.75077545
-0.59413152 0.18383756 0.78307821
-0.54800691 0.19713036 0.81291331
-0.5133669 0.21418333 0.83101139
-0.49406215 0.22254772 0.84046124
-0.47539871 0.23108061 0.84888033
-0.45683576 0.23176979 0.85882702
-0.41943447 0.23792689 0.87605109
-0.35984404 0.24268544 0.90089735
-0.2907078 0.24453873 0.92503502
-0.23895018 0.25113444 0.93799483
-0.12620903 0.26696854 0.95540519
-0.0056587246 0.27966795 0.96008011
0.12490656 0.27575381 0.95307827
0.22690501 0.27663428 0.93380276
0.3240637 0.27347869 0.90564459
0.39182914 0.2667762 0.88051143
0.45396263 0.23649556 0.85906215
0.50690524 0.21777699 0.83403852
0.53827145 0.19118174 0.82080046
0.57088587 0.16131733 0.80502549
0.59193427 0.14511376 0.79281512
0.60239893 0.13307175 0.78702442
0.60925774 0.12706319 0.78272597
0.61851807 0.11536327 0.77725589
0.63213857 0.10626496 0.7675341
0.64775845 0.092061147 0.75626301
0.66249711 0.080123526 0.74476694
0.67575095 0.073862437 0.73342007
0.68813012 0.068719144 0.72232584
-0.64161762 0.14821688 0.752568
-0.60528356 0.15235866 0.78129293
-0.56424821 0.1689523 0.80813308
-0.53552998 0.18546419 0.82389968
-0.50686505 0.20110517 0.83823895
-0.48284115 0.20658365 0.85099214
-0.4584991 0.21167278 0.86311831
-0.42408315 0.21234735 0.8803761
-0.35326966 0.21259665 0.91104512
-0.27952992 0.21251214 0.93632346
-0.22475195 0.21346614 0.95074643
-0.1209068 0.22556668 0.96669603
-0.01164278 0.23214846 0.97261068
0.12452261 0.24202714 0.9622458
0.24482308 0.23447291 0.94078909
0.33936574 0.23175885 0.91165713
0.40483652 0.22099119 0.88728253
0.46306129 0.2035758 0.86263036
0.51927714 0.18035997 0.83535713
0.55829411 0.14773523 0.81638348
0.58046507 0.13302368 0.80334613
0.60186873 0.11659877 0.79003719
0.61064739 0.11268707 0.78384398
0.6171169 0.10060165 0.78041401
0.63003526 0.088298169 0.7715303
0.64375606 0.076514548 0.76139586
0.65742556 0.06383545 0.75081067
0.66811974 0.055744414 0.74196265
0.6792233 0.051435121 0.73212714
0.69245905 0.050031597 0.71972029
-0.6439249 0.12129173 0.75541316
-0.61459125 0.11750295 0.78004529
-0.58103755 0.13546958 0.80252312
-0.55596715 0.15037339 0.81748906
-0.51911538 0.16745279 0.83814008
-0.49365764 0.17855627 0.85112854
-0.46209664 0.18744282 0.86679403
-0.42484253 0.18797255 0.88553664
-0.35786271 0.18101979 0.9160601
-0.28463408 0.17424238 0.94266804
-0.22802679 0.17317815 0.95813001
-0.1243013 0.17792059 0.97616262
-0.00073273511 0.17743009 0.98413313
0.12795797 0.18626506 0.97413145
0.24320778 0.17658379 0.95376524
0.34520516 0.18520514 0.92007198
0.40942381 0.17287798 0.89581547
0.47881496 0.1604866 0.8631224
0.5404234 0.13494012 0.83050208
0.57358114 0.11731141 0.81070507
0.59071876 0.10365188 0.80019225
0.60908612 0.092711883 0.78766656
0.61982927 0.08853239 0.77972668
0.62665424 0.071118027 0.77604555
0.6386769 0.059822602 0.76714606
0.65212581 0.048460672 0.75656031
0.66395425 0.03989981 0.74670794
0.67261892 0.033509846 0.73922993
0.68250905 0.033060105 0.73012905
0.69614226 0.032852619 0.71715177
-0.64475886 0.092783209 0.758734
-0.6207467 0.090047481 0.77882282
-0.59546359 0.099446939 0.7972035
-0.57068938 0.11261532 0.81340729
-0.53436567 0.12492102 0.83597134
-0.50559781 0.14260859 0.85090167
-0.4691464 0.15559805 0.86930484
-0.42065296 0.14798317 0.89507099
-0.35356178 0.14294666 0.92442432
-0.28986834 0.14030668 0.94672614
-0.2230175 0.13295488 0.96570502
-0.12894248 0.12860389 0.98327762
-0.0032382122 0.12242754 0.99247217
0.12447095 0.12662278 0.98411059
0.24711828 0.12651843 0.96069019
0.35412363 0.1197635 0.92749833
0.43023601 0.11887876 0.89485463
0.49699854 0.10942783 0.86082402
0.54847535 0.098110531 0.83039094
0.58046167 0.085392606 0.80979772
0.59697606 0.073826539 0.79885495
0.61322752 0.067520465 0.78701524
0.62936954 0.052095596 0.775358
0.63755306 0.037733262 0.76948184
0.64721064 0.027438226 0.76181725
0.65890594 0.022065847 0.75190163
0.66886805 0.021414696 0.74307264
0.67811553 0.014543357 0.73481141
0.68407917 0.016412081 0.7292231
0.69712194 0.015780979 0.71677888
-0.6461682 0.063186396 0.76057487
-0.62678633 0.065992822 0.77639155
-0.60458929 0.064934399 0.79388621
-0.57658242 0.079597011 0.81315253
-0.5513117 0.086601489 0.8297925
-0.51875436 0.097438209 0.84935252
-0.47372187 0.1116085 0.87357377
-0.42264212 0.11171722 0.89938473
-0.36681596 0.10095144 0.9247999
-0.28855516 0.09336445 0.95290031
-0.21496508 0.083457236 0.97304928
-0.1394535 0.071073582 0.98767468
-0.0072194022 0.069877675 0.99752944
0.12333966 0.066747045 0.99011725
0.23892826 0.06431042 0.96890529
0.3446295 0.061068417 0.93675032
0.42867339 0.06643416 0.90101367
0.49858351 0.064053647 0.86447187
0.55715789 0.057495443 0.82841376
0.58895884 0.04881758 0.80668726
0.602366 0.038873402 0.79727289
0.6198909 0.032301141 0.7840229
0.63879975 0.01219053 0.76927646
0.64572206 0.0052998773 0.76355414
0.65242639 -0.0088778632 0.7578001
0.66289913 -0.0063328336 0.74868193
0.67196939 -0.00630951 0.74055204
0.68006125 -0.0070185782 0.73312171
0.68657956 -0.0069193309 0.72702176
0.70084462 -0.0086605411 0.71326139
-0.64690567 0.043853718 0.76130802
-0.62810302 0.04256853 0.77696494
-0.60802887 0.041303993 0.79283975
-0.58478813 0.046182093 0.80987039
-0.56161126 0.050343097 0.82586825
-0.52504475 0.064711438 0.84861089
-0.48186161 0.056225431 0.87444159
-0.42333634 0.057562979 0.90414205
-0.36423051 0.051541669 0.92988149
-0.29748625 0.038591118 0.95394584
-0.22098116 0.021419551 0.97504283
-0.12890804 0.0096150191 0.99160994
-0.014968136 0.003974903 0.99988007
0.11104568 0.0013640635 0.99381437
0.23110399 -0.00021957899 0.97292903
0.33899615 -0.0031189275 0.94078259
0.42253298 0.009732872 0.90629529
0.4993403 0.0067770193 0.86637944
0.56595223 0.0023689299 0.82443463
0.59138834 0.0052651594 0.80636971
0.61231428 -0.00085394601 0.790614
0.62996737 -0.014342905 0.77648915
0.64505897 -0.028510203 0.76360074
0.64991491 -0.024187739 0.75962199
0.6562223 -0.028025744 0.75404698
0.6642595 -0.032733148 0.74678502
0.67322637 -0.04004633 0.73835124
0.68124997 -0.035214784 0.73120339
0.69063669 -0.035504577 0.72232984
0.70365777 -0.037220246 0.70956353
-0.64806986 0.024648462 0.76118192
-0.6277111 0.020033547 0.77818855
-0.60986781 0.018378544 0.79229003
-0.58552731 0.0055962807 0.81063336
-0.5657206 0.0032450086 0.82459061
-0.5339516 0.0050636878 0.84549988
-0.48242422 -0.0067829295 0.87591145
-0.42856926 -0.0080658591 0.90347293
-0.36546558 -0.025052021 0.93048767
-0.30441681 -0.033854888 0.9519371
-0.21742506 -0.037470911 0.97535751
-0.13782915 -0.051971703 0.98909154
-0.0099250709 -0.051720916 0.99861226
0.10633741 -0.059777408 0.99253162
0.22201656 -0.066552622 0.97276893
0.33606912 -0.074391266 0.93889482
0.41679164 -0.069009916 0.90637871
0.50071697 -0.059649557 0.86355338
0.56262343 -0.056455884 0.82478337
0.59583184 -0.055091194 0.80121743
0.61595405 -0.04927223 0.78623969
0.63195362 -0.05541635 0.77302241
0.64469778 -0.062290087 0.76189548
0.65188265 -0.060264537 0.75592142
0.65774357 -0.066940088 0.75026157
0.66544876 -0.069874057 0.74316591
0.67307818 -0.069357802 0.73631193
0.68153079 -0.065901153 0.72881604
0.6933275 -0.065767099 0.71761526
0.70510946 -0.059486653 0.70659889
-0.64633134 0.0035951166 0.76304841
-0.62581507 0.0038317805 0.77996206
-0.60654452 -0.013400461 0.79493658
-0.5843293 -0.025090401 0.81112868
-0.56323148 -0.041600419 0.8252513
-0.53318446 -0.049466556 0.84455159
-0.4901012 -0.058531012 0.86969819
-0.43364414 -0.080595872 0.8974726
-0.37360118 -0.097626176 0.92243769
-0.3016055 -0.10175909 0.94798693
-0.22351175 -0.11252882 0.96818374
-0.14856636 -0.12157232 0.98140114
-0.038485844 -0.13625949 0.98992535
0.095919827 -0.13951471 0.98556331
0.20847018 -0.13738112 0.96833187
0.32320216 -0.14137055 0.93571081
0.40963155 -0.14751648 0.9002449
0.49103986 -0.13353687 0.86084131
0.55139895 -0.12535324 0.82477013
0.58344558 -0.11067811 0.80457542
0.61048823 -0.09932355 0.78577284
0.63123789 -0.095590713 0.769676
0.6453733 -0.091248474 0.75839766
0.65481063 -0.090598529 0.75034322
0.6590774 -0.097004434 0.74579295
0.6652017 -0.096770931 0.74036619
0.67222805 -0.088912073 0.73498577
0.68075134 -0.088192555 0.72718614
0.69458238 -0.085859847 0.71427124
0.70272517 -0.080052876 0.70694333
-0.64645092 -0.018322599 0.76273553
-0.62212254 -0.033512277 0.78220232
-0.60020875 -0.044220028 0.79862009
-0.57385804 -0.056571872 0.81699852
-0.55316815 -0.079822354 0.82923663
-0.52859635 -0.09606559 0.84342
-0.48222995 -0.11790046 0.86807474
-0.4372112 -0.14811329 0.88707881
-0.39267011 -0.16952818 0.90391945
-0.3183002 -0.18049691 0.93064808
-0.23271692 -0.20392886 0.95092369
-0.15217868 -0.20479044 0.96690358
-0.052855211 -0.20807616 0.97668349
0.065805404 -0.22021469 0.97322923
0.20007052 -0.21110178 0.95676947
0.30514803 -0.22624087 0.9250404
0.39093898 -0.20611019 0.89704253
0.47920947 -0.20410331 0.85363934
0.53290663 -0.19092125 0.82435405
0.56851962 -0.17119579 0.80465983
0.6019501 -0.14565778 0.78513686
0.62770868 -0.13168713 0.76722899
0.64378585 -0.11987661 0.75575748
0.65271467 -0.11842816 0.74829027
0.66002168 -0.11615039 0.74221322
0.6661527 -0.11509419 0.7368812
0.67282097 -0.10994573 0.73158997
0.67945268 -0.10712761 0.72585655
0.69105878 -0.10406217 0.71526836
0.70207879 -0.10758144 0.70392585
-0.6416017 -0.059942977 0.76469216
-0.61334774 -0.065175988 0.78711921
-0.59080671 -0.082012209 0.80263405
-0.56638081 -0.10512492 0.81741148
-0.54399451 -0.1285548 0.82918251
-0.5124748 -0.15658577 0.84430473
-0.47320315 -0.18306295 0.86172312
-0.4349202 -0.21288645 0.87494216
-0.38552519 -0.23476408 0.89233186
-0.33360262 -0.25135092 0.90858792
-0.25174449 -0.26662666 0.9303413
-0.16095751 -0.27905805 0.94668859
-0.074922039 -0.3053347 0.94929311
0.0369874 -0.29461898 0.95489873
0.16708675 -0.28444674 0.94401911
0.2928344 -0.2760211 0.91545637
0.373335 -0.27151433 0.88707438
0.45781078 -0.26492597 0.84865984
0.51755033 -0.24481467 0.81988257
0.55513339 -0.21600772 0.80322325
0.58724207 -0.18655941 0.78761815
0.61758097 -0.16329367 0.76936917
0.63722892 -0.14810736 0.75630914
0.648406 -0.14154086 0.74802129
0.66114368 -0.13601993 0.73782627
0.66484103 -0.13498093 0.73468807
0.6721067 -0.13272156 0.72846247
0.67903685 -0.12837853 0.72279174
0.69176657 -0.1276565 0.71074808
0.70388683 -0.13018623 0.69827994
-0.63257716 -0.091971171 0.76901719
-0.60343677 -0.11175308 0.7895412
-0.57704906 -0.1357667 0.80534576
-0.55016397 -0.15583359 0.82038741
-0.52759897 -0.17560518 0.83114508
-0.49764205 -0.19689452 0.84473957
-0.46024163 -0.22410649 0.85904244
-0.42306053 -0.25058128 0.87076335
-0.38016881 -0.27154597 0.88415749
-0.32287251 -0.29550157 0.89912856
-0.26861337 -0.31840802 0.90910021
-0.18487286 -0.34063766 0.92183947
-0.091371309 -0.35811807 0.92919467
0.02261377 -0.35700472 0.93382881
0.14375436 -0.34928317 0.92592438
0.25901014 -0.34672676 0.90149559
0.36060529 -0.33132052 0.87188906
0.44337263 -0.3126121 0.84005618
0.49609897 -0.28386175 0.82055366
0.53763338 -0.25376227 0.80408647
0.57161975 -0.22823228 0.78813761
0.60156024 -0.20417188 0.77229471
0.6290626 -0.17801603 0.75669713
0.6438259 -0.16404768 0.7473798
0.65751339 -0.15683483 0.73693892
0.66554158 -0.15646527 0.72977601
0.66933463 -0.15348625 0.72693406
0.67939057 -0.15099139 0.71807385
0.69013905 -0.15527881 0.70682146
0.70369266 -0.15877932 0.69253575
-0.61804736 -0.13815387 0.7739063
-0.59074561 -0.15519332 0.79179206
-0.55977718 -0.18434182 0.80787846
-0.53713812 -0.20204408 0.81893884
-0.51180138 -0.21709749 0.83122081
-0.48123042 -0.24099284 0.84281655
-0.44620138 -0.26173297 0.85580382
-0.40756198 -0.28804052 0.8665598
-0.36349073 -0.31424778 0.87699648
-0.30758482 -0.3482502 0.88550176
-0.26289796 -0.36495538 0.89313618
-0.19695616 -0.3833313 0.90236655
-0.10789279 -0.39224692 0.91351054
-0.016051956 -0.40069162 0.91607235
0.10876317 -0.38871637 0.91491538
0.23270596 -0.38568739 0.89280075
0.33117505 -0.38686043 0.86061727
0.40904045 -0.3635162 0.8369838
0.47426885 -0.33113379 0.81573248
0.52007633 -0.29891253 0.80010744
0.54804082 -0.27653652 0.78941675
0.58520527 -0.24418377 0.7732458
0.61470244 -0.22098345 0.75717054
0.63835672 -0.19107819 0.74564725
0.65415464 -0.17806964 0.73510061
0.65978969 -0.17705958 0.73029273
0.66819373 -0.17831538 0.7223024
0.67962143 -0.17782853 0.71168232
0.69051201 -0.18618912 0.69894691
0.70620289 -0.18760841 0.68270093
-0.60088127 -0.17555587 0.77982167
-0.57593306 -0.20269776 0.79196889
-0.54729921 -0.22192392 0.80697791
-0.52065422 -0.24479534 0.8179208
-0.49427843 -0.25943321 0.82968864
-0.46678597 -0.27749842 0.83970559
-0.43108919 -0.29409539 0.85303576
-0.38427798 -0.32666041 0.86349488
-0.33725984 -0.36023228 0.86976348
-0.29864953 -0.38032526 0.87530632
-0.2578388 -0.39356877 0.88239604
-0.20695188 -0.40660968 0.88985363
-0.13867314 -0.42214789 0.89585764
-0.039995705 -0.43484468 0.89961684
0.088511716 -0.44591961 0.8906859
0.19995426 -0.44501474 0.87291476
0.29906766 -0.43339425 0.85013409
0.38064852 -0.40093551 0.83328112
0.43282572 -0.3811984 0.81691473
0.49242904 -0.35225607 0.79588272
0.52277559 -0.32596431 0.78768836
0.56075813 -0.28938917 0.77576042
0.59538951 -0.263251 0.75908513
0.62389971 -0.2266785 0.74790775
0.64706783 -0.2113302 0.73255905
0.65831656 -0.21002596 0.72284743
0.66483602 -0.20500611 0.71830743
0.67624563 -0.21034286 0.70600831
0.69280813 -0.20657017 0.69090206
0.70248858 -0.21049748 0.67985337
-0.57888559 -0.21754796 0.78585263
-0.55292472 -0.23862997 0.7983295
-0.52821443 -0.25568951 0.80969895
-0.50516368 -0.27581702 0.81776196
-0.47476871 -0.2988057 0.82783442
-0.44382311 -0.31935667 0.83727675
-0.40302183 -0.34521707 0.84758397
-0.36360296 -0.36819817 0.8557003
-0.3320784 -0.38879505 0.8593965
-0.3035139 -0.40249214 0.86364309
-0.26196341 -0.41192033 0.87275243
-0.21906973 -0.43046761 0.87561755
-0.15799111 -0.46157206 0.87292041
-0.067762038 -0.47715292 0.87620397
0.03910279 -0.49418941 0.86847441
0.16280939 -0.4999712 0.8506009
0.25419635 -0.49033873 0.8336379
0.33776623 -0.46127549 0.82045042
0.40603702 -0.42995351 0.80639563
0.45177068 -0.40692699 0.79392297
0.49635277 -0.37625071 0.7823486
0.52996834 -0.34856749 0.77306808
0.57148578 -0.30795933 0.76063464
0.61187829 -0.26925472 0.74371154
0.63703873 -0.25332025 0.7280182
0.65165591 -0.23786921 0.72025191
0.66048939 -0.22523128 0.71625738
0.67260542 -0.23133322 0.70291314
0.68637518 -0.2350951 0.68820012
0.70871439 -0.23402059 0.6655511
-0.55655233 -0.24909031 0.79259291
-0.53694998 -0.26467552 0.8010191
-0.51108977 -0.2836176 0.81138665
-0.48150601 -0.30547641 0.8214841
-0.4453651 -0.33900746 0.82868804
-0.41833199 -0.36178519 0.83313253
-0.3748277 -0.3966822 0.83794238
-0.34155441 -0.41118741 0.8451423
-0.31695732 -0.41930094 0.85072015
-0.28525567 -0.43329795 0.85491642
-0.25370369 -0.45289048 0.85470735
-0.21564845 -0.47353091 0.85396968
-0.1637458 -0.49378701 0.85402676
-0.095126518 -0.52076266 0.84838505
0.011820509 -0.54204332 0.84026741
0.10509451 -0.54511878 0.83174555
0.21360391 -0.53229246 0.81916916
0.30382718 -0.50974628 0.80488992
0.36549121 -0.48480651 0.79459349
0.41849505 -0.45739077 0.78463723
0.46452551 -0.42726933 0.7756655
0.49800488 -0.40208094 0.76832419
0.54558542 -0.3658641 0.75397614
0.58983431 -0.33048866 0.73679897
0.6225999 -0.30100978 0.72233128
0.6396302 -0.28743594 0.7129192
0.65255441 -0.28038898 0.70395651
0.66392436 -0.27864813 0.693945
0.68637749 -0.27351523 0.67385114
0.71359018 -0.27107487 0.6459934
-0.53592089 -0.27876479 0.79691843
-0.51447459 -0.29400181 0.80553016
-0.48568866 -0.31698266 0.81463398
-0.45068217 -0.34487761 0.82337417
-0.40965372 -0.37918288 0.82970125
-0.38473972 -0.41009487 0.82692052
-0.34880675 -0.43143214 0.83198567
-0.31356148 -0.45374544 0.83414284
-0.28456712 -0.47289037 0.83390422
-0.25568297 -0.48294581 0.83749004
-0.22279338 -0.49860859 0.83770674
-0.18358711 -0.52571028 0.83061692
-0.12715197 -0.55207645 0.82404125
-0.089547684 -0.57111139 0.81597364
-0.034737558 -0.58833601 0.80787006
0.064685372 -0.59527693 0.80091272
0.15239679 -0.58267692 0.79828743
0.24632599 -0.56336779 0.78863188
0.32615511 -0.53077717 0.78223937
0.38634762 -0.50356335 0.77276094
0.42445887 -0.4827492 0.76602081
0.45987528 -0.45990244 0.75960811
0.50280893 -0.43662888 0.74601501
0.55010523 -0.41101329 0.72694726
0.59384084 -0.37855399 0.70996474
0.62745285 -0.35314469 0.69396811
0.63976345 -0.34216963 0.68820249
0.65055931 -0.33051868 0.68376164
0.67248731 -0.3175862 0.66850566
0.70173271 -0.32081913 0.63611814
-0.50829667 -0.31028221 0.80334267
-0.48267595 -0.33253263 0.81021354
-0.45547098 -0.35701673 0.81552758
-0.40922093 -0.39175078 0.82405677
-0.37708607 -0.42645343 0.82215787
-0.3393381 -0.45868455 0.82125401
-0.31465837 -0.48243991 0.81746061
-0.28813279 -0.50323403 0.81469934
-0.2555058 -0.52047243 0.81475471
-0.22383717 -0.54000775 0.81134983
-0.18511473 -0.56245786 0.80583726
-0.16385804 -0.5719572 0.8037509
-0.12039737 -0.58848109 0.79949639
-0.083256151 -0.60760081 0.78986687
-0.03716413 -0.61613989 0.78675947
0.016975011 -0.6276655 0.77829806
0.092389479 -0.62643473 0.77397914
0.18591315 -0.61338107 0.76759362
0.26878886 -0.58175571 0.76766714
0.33409193 -0.55790778 0.75968513
0.39159855 -0.53399078 0.74933599
0.4263293 -0.51541531 0.74336424
0.46876176 -0.48993196 0.73500278
0.51369857 -0.46591907 0.72043959
0.56110265 -0.44836226 0.69579818
0.60007079 -0.41146792 0.68600962
0.62387509 -0.40444047 0.66873596
0.64298909 -0.39598256 0.655563
0.66219373 -0.38823344 0.64091673
0.69686232 -0.39596311 0.59799341
-0.48337351 -0.34248781 0.80563773
-0.4574537 -0.36554776 0.8106238
-0.41219879 -0.40570922 0.81577704
-0.37319442 -0.43470793 0.81960658
-0.32515028 -0.4710685 0.81998278
-0.29818175 -0.50041648 0.8128167
-0.26843562 -0.52748472 0.80604106
-0.24154491 -0.54418686 0.80344055
-0.21261436 -0.56374921 0.7981115
-0.19008376 -0.58069364 0.79162053
-0.16923673 -0.59352282 0.78682246
-0.13257334 -0.60844182 0.78244671
-0.097413567 -0.62238071 0.77662916
-0.072930079 -0.63171327 0.77176392
-0.038395761 -0.6449144 0.76328971