# vtk DataFile Version 2.0
Grain example
ASCII
DATASET UNSTRUCTURED_GRID
POINTS 900 float
-23.405827 -23.521191 4.9564028
-23.591166 -22.63668 5.2772603
-23.672012 -21.733736 5.4233579
-23.730151 -20.827943 5.564201
-23.768462 -19.871205 5.697093
-23.799514 -18.996377 5.8083189
-23.810441 -18.142319 5.9185782
-23.783624 -17.324737 6.0251954
-23.744131 -16.535372 6.1271228
-23.691283 -15.777396 6.2261627
-23.645205 -15.091723 6.2772652
-23.571329 -14.444912 6.3192886
-23.504228 -13.760227 6.3693397
-23.437186 -13.081781 6.3935097
-23.368944 -12.402837 6.4316092
-23.312649 -11.7487 6.4213902
-23.24911 -11.11538 6.3748761
-23.202737 -10.492481 6.3347257
-23.162692 -9.8526572 6.2795522
-23.114974 -9.2125645 6.2255932
-23.062091 -8.5671409 6.1711367
-23.004457 -7.901576 6.1132022
-22.895124 -7.1822505 6.0422882
-22.7701 -6.4178397 5.9940233
-22.595175 -5.6025036 5.9516044
-22.397271 -4.7632748 5.9034175
-22.208001 -3.9332319 5.8613925
-22.014718 -3.0991442 5.8207566
-21.802691 -2.2615693 5.7928794
-21.610628 -1.4296748 5.7701265
-22.547412 -23.677702 5.21569
-22.736661 -22.791546 5.6148597
-22.885768 -21.87399 5.9429702
-22.967741 -20.927144 6.1644127
-23.025381 -20.036202 6.3463762
-23.069786 -19.116799 6.4965534
-23.069996 -18.230618 6.6354483
-23.049952 -17.386933 6.7587969
-22.996145 -16.583314 6.8691154
-22.934571 -15.801607 6.9740644
-22.865542 -15.109441 7.0628345
-22.803674 -14.424402 7.1474107
-22.740165 -13.745388 7.2351144
-22.667754 -13.04862 7.3024625
-22.595669 -12.395117 7.3257172
-22.520264 -11.737918 7.3435448
-22.46542 -11.1081 7.3372176
-22.42465 -10.484421 7.316305
-22.388326 -9.8417288 7.2773017
-22.352899 -9.2070469 7.2296802
-22.321326 -8.5609565 7.1767469
-22.281087 -7.9052259 7.1096532
-22.168803 -7.1685935 7.0540885
-22.038518 -6.3843052 7.0173964
-21.882558 -5.5888181 6.9821356
-21.693125 -4.7433213 6.9361881
-21.503856 -3.9132794 6.8941628
-21.297287 -3.051224 6.8678791
-21.104904 -2.1884217 6.8372808
-20.917671 -1.3608555 6.8025572
-21.579988 -23.827699 5.4580823
-21.79397 -22.932742 5.9777066
-21.934243 -22.001828 6.4414862
-22.030653 -21.104945 6.7574059
-22.094425 -20.196704 6.9926341
-22.143132 -19.261889 7.1959888
-22.191034 -18.328433 7.3691536
-22.203986 -17.45167 7.5100769
-22.178484 -16.632464 7.6318319
-22.115465 -15.860918 7.7431252
-22.047082 -15.133578 7.8674888
-22.005816 -14.419044 7.9927809
-21.94998 -13.733707 8.0973021
-21.877584 -13.052232 8.168337
-21.799681 -12.37949 8.2260948
-21.737142 -11.728758 8.2591412
-21.695773 -11.106504 8.2769753
-21.655725 -10.477037 8.2752742
-21.613447 -9.8376581 8.2720701
-21.595351 -9.2053091 8.2173269
-21.574881 -8.5628912 8.160845
-21.534259 -7.8856994 8.1233825
-21.439079 -7.1519877 8.0762187
-21.304782 -6.3636542 8.0409167
-21.161466 -5.5813992 8.0104285
-20.988981 -4.7233688 7.9689583
-20.788736 -3.8679301 7.9450613
-20.591618 -3.0153447 7.9143608
-20.398079 -2.151257 7.8818733
-20.231468 -1.3142008 7.837771
-20.52483 -23.964086 5.6955941
-20.691075 -23.041415 6.3087062
-20.833208 -22.159551 6.8713555
-20.971108 -21.275243 7.3218635
-21.048398 -20.356944 7.6217054
-21.090861 -19.412645 7.874066
-21.144093 -18.46325 8.070308
-21.180667 -17.551663 8.2351844
-21.177312 -16.688984 8.3885674
-21.147093 -15.891992 8.5229232
-21.132403 -15.15335 8.6748514
-21.110266 -14.425623 8.8211757
-21.090279 -13.740101 8.9393695
-21.04314 -13.047911 9.0306073
-20.981335 -12.370372 9.1131459
-20.941896 -11.722222 9.1744794
-20.905802 -11.098827 9.2110202
-20.879321 -10.468342 9.2119379
-20.872152 -9.8494071 9.1988853
-20.845666 -9.2028015 9.1802395
-20.816307 -8.5381436 9.1611846
-20.778894 -7.8715327 9.1188799
-20.697964 -7.1379814 9.0833941
-20.568738 -6.3404323 9.060661
-20.426481 -5.5449162 9.0441331
-20.259113 -4.7084839 9.0266051
-20.076903 -3.8408889 8.9930792
-19.890684 -2.9692485 8.9609432
-19.710167 -2.118081 8.9199411
-19.543113 -1.2804283 8.8731313
-19.411497 -24.041938 5.9647902
-19.544793 -23.172563 6.6211317
-19.690203 -22.291742 7.2177536
-19.833383 -21.440126 7.7119928
-19.946454 -20.514457 8.1881242
-20.034325 -19.560904 8.5162916
-20.053906 -18.612434 8.7775474
-20.084014 -17.656639 8.9808405
-20.080791 -16.753871 9.1581319
-20.100379 -15.956534 9.3173667
-20.12231 -15.198946 9.4697208
-20.149694 -14.458781 9.6317478
-20.132402 -13.765742 9.7694779
-20.119827 -13.087214 9.8759516
-20.123526 -12.394147 9.961968
-20.107292 -11.725988 10.050235
-20.09924 -11.094558 10.103582
-20.092464 -10.469885 10.117148
-20.073174 -9.8317071 10.118211
-20.048867 -9.1879457 10.111072
-20.023488 -8.5202865 10.100662
-19.989861 -7.851715 10.090521
-19.922314 -7.1107674 10.08333
-19.79195 -6.3055673 10.080739
-19.66728 -5.4990677 10.085628
-19.530786 -4.6796189 10.075163
-19.365778 -3.8294903 10.037966
-19.195446 -2.9585776 9.9963488
-19.026539 -2.0890439 9.953093
-18.855915 -1.2479429 9.9103802
-18.31089 -24.104267 6.1564725
-18.419581 -23.290461 6.8797652
-18.536315 -22.418352 7.5206523
-18.652962 -21.566775 8.0697532
-18.755459 -20.650958 8.6056779
-18.848504 -19.705783 9.0816807
-18.926578 -18.738226 9.4602659
-18.941675 -17.758413 9.7328822
-18.992645 -16.821487 9.9594153
-19.019903 -16.024418 10.117436
-19.052551 -15.267404 10.286546
-19.08475 -14.54311 10.441309
-19.106582 -13.826065 10.577752
-19.157456 -13.146254 10.711842
-19.194209 -12.457742 10.812772
-19.2257 -11.762538 10.889212
-19.233954 -11.103839 10.966162
-19.228807 -10.445717 11.028851
-19.215214 -9.8064461 11.041361
-19.203374 -9.1685033 11.044824
-19.19471 -8.5029082 11.034227
-19.174945 -7.841289 11.029021
-19.086476 -7.072558 11.045394
-18.963493 -6.2541206 11.077181
-18.838311 -5.4478855 11.097118
-18.728019 -4.6330066 11.092202
-18.59564 -3.8171969 11.070587
-18.43922 -2.9454415 11.02818
-18.298778 -2.0743352 10.97297
-18.163022 -1.2228859 10.913278
-17.230167 -24.133242 6.2938054
-17.313839 -23.361097 7.0428836
-17.416658 -22.521137 7.7420719
-17.498554 -21.656225 8.3752903
-17.566124 -20.762474 8.9908276
-17.639774 -19.832272 9.538527
-17.707582 -18.859074 10.019146
-17.81114 -17.878802 10.447178
-17.901561 -16.894388 10.73932
-17.945204 -16.080366 10.936272
-17.987448 -15.341457 11.118919
-18.012714 -14.627815 11.253028
-18.068273 -13.930513 11.393257
-18.142385 -13.24433 11.526214
-18.234402 -12.567716 11.634963
-18.302417 -11.83902 11.7239
-18.334922 -11.123283 11.820335
-18.34064 -10.432466 11.909654
-18.328545 -9.7814702 11.956706
-18.319884 -9.1470621 11.965361
-18.307812 -8.4855259 11.955002
-18.276018 -7.8122969 11.963902
-18.202088 -7.0289812 11.992737
-18.108743 -6.2185156 12.027738
-18.012487 -5.4120862 12.052865
-17.919014 -4.5932132 12.073908
-17.817888 -3.7955138 12.073384
-17.701772 -2.9346437 12.024717
-17.565622 -2.0675129 11.961371
-17.447381 -1.2187027 11.896755
-16.149187 -24.168942 6.420632
-16.224322 -23.38897 7.18754
-16.283926 -22.569012 7.9275471
-16.336312 -21.70571 8.6296432
-16.405002 -20.841508 9.283215
-16.441858 -19.927865 9.9049401
-16.538684 -18.970956 10.50514
-16.641484 -17.992132 11.002347
-16.747637 -17.001218 11.455157
-16.855083 -16.162186 11.723552
-16.917096 -15.413049 11.899402
-16.974599 -14.719452 12.036309
-17.061691 -14.042325 12.159771
-17.150837 -13.356133 12.28583
-17.229809 -12.65637 12.424143
-17.314465 -11.938133 12.530495
-17.379144 -11.202219 12.619021
-17.431352 -10.468754 12.710697
-17.457949 -9.761721 12.801144
-17.456229 -9.1200721 12.823437
-17.430875 -8.4461603 12.837056
-17.405105 -7.7642538 12.850152
-17.328737 -6.9786976 12.883942
-17.258975 -6.1771581 12.91509
-17.164006 -5.3796201 12.940796
-17.097762 -4.5655876 12.952553
-17.032599 -3.7603761 12.967534
-16.952373 -2.9237048 12.965163
-16.855782 -2.0531284 12.924443
-16.745566 -1.2270344 12.848297
-15.125786 -24.185213 6.4881737
-15.15984 -23.402954 7.2964183
-15.21402 -22.589567 8.0521564
-15.263355 -21.7495 8.7536909
-15.330152 -20.878271 9.4539793
-15.392473 -19.984407 10.133897
-15.46534 -19.0559 10.773841
-15.555492 -18.084553 11.373219
-15.667238 -17.119987 11.926411
-15.783521 -16.258896 12.342191
-15.888387 -15.520311 12.545335
-16.008776 -14.831607 12.694883
-16.123325 -14.138155 12.832364
-16.202538 -13.440622 12.972521
-16.279505 -12.738837 13.111528
-16.358222 -12.027436 13.248662
-16.439517 -11.304936 13.33959
-16.520587 -10.547712 13.419928
-16.58078 -9.8184733 13.507845
-16.602949 -9.0920743 13.603284
-16.600562 -8.3976281 13.638482
-16.579102 -7.719994 13.648691
-16.521312 -6.9307351 13.679661
-16.472502 -6.1426688 13.701382
-16.409336 -5.3393666 13.713668
-16.343873 -4.5261306 13.725334
-16.273754 -3.7308387 13.738859
-16.212222 -2.9139207 13.747175
-16.126798 -2.0714644 13.736308
-16.043251 -1.2160299 13.728822
-14.125427 -24.192395 6.5065982
-14.149534 -23.394562 7.3563413
-14.176657 -22.599408 8.1265232
-14.257317 -21.761969 8.840139
-14.329182 -20.905064 9.5704053
-14.387731 -20.014563 10.280292
-14.435242 -19.097755 10.992313
-14.511398 -18.17696 11.678806
-14.615653 -17.236453 12.266621
-14.752923 -16.398369 12.766073
-14.901055 -15.632298 13.136704
-15.013702 -14.936297 13.31657
-15.125136 -14.236217 13.496254
-15.2419 -13.53079 13.649582
-15.342407 -12.823182 13.791927
-15.426965 -12.113938 13.927759
-15.509983 -11.413497 14.045943
-15.59823 -10.656149 14.127241
-15.662073 -9.878706 14.231144
-15.706381 -9.1376899 14.333493
-15.745185 -8.396934 14.404846
-15.772467 -7.6793402 14.424567
-15.759156 -6.8822308 14.441791
-15.721341 -6.0975634 14.456929
-15.663123 -5.2992938 14.46836
-15.597369 -4.4857361 14.479554
-15.535555 -3.6836765 14.489084
-15.485775 -2.8937531 14.494445
-15.425295 -2.054987 14.497001
-15.329161 -1.2021813 14.498425
-13.16092 -24.175846 6.5212883
-13.159575 -23.389769 7.3743489
-13.201782 -22.593872 8.1943946
-13.272138 -21.769763 8.9324187
-13.329466 -20.905785 9.668568
-13.388367 -20.028284 10.403625
-13.451956 -19.133289 11.144819
-13.526712 -18.237696 11.871725
-13.650347 -17.357072 12.538638
-13.800931 -16.54538 13.076044
-13.955582 -15.745946 13.534189
-14.0789 -15.024643 13.849077
[...]
POINT_DATA 900
VECTORS normals float
-0.45505226 -0.41192778 0.78945737
-0.5446703 -0.2998484 0.78321466
-0.61716346 -0.20165744 0.76055476
-0.65696311 -0.14806085 0.73924114
-0.68593133 -0.11256307 0.71890734
-0.71264414 -0.080175798 0.6969291
-0.72333041 -0.058334798 0.68803356
-0.73170932 -0.039981842 0.68044318
-0.73845777 -0.026853444 0.6737648
-0.74361605 -0.01586897 0.66841855
-0.74699598 -0.0020616864 0.66482536
-0.75491678 0.0098949898 0.65574595
-0.76052672 0.024956133 0.64882686
-0.7668784 0.042277511 0.64039841
-0.77507963 0.05536953 0.62943291
-0.77911742 0.065612108 0.62343492
-0.78750938 0.072910107 0.61197475
-0.79257244 0.08577122 0.60371535
-0.79890265 0.10546252 0.59214205
-0.80684566 0.12167495 0.57809626
-0.81229266 0.1309221 0.56836612
-0.81976524 0.15099957 0.55243469
-0.82459445 0.16613198 0.54078106
-0.82984572 0.18729137 0.52562156
-0.83188281 0.20625192 0.51520009
-0.83277088 0.22229975 0.50702612
-0.83442533 0.23243404 0.4997087
-0.83869544 0.24534848 0.48620374
-0.84442181 0.25093351 0.47326967
-0.84830196 0.26702725 0.45725292
-0.35676218 -0.49334826 0.79330211
-0.4516267 -0.38267353 0.80597413
-0.52684443 -0.2842532 0.80102126
-0.58720826 -0.21510072 0.78033207
-0.63360463 -0.15638491 0.75768657
-0.66458664 -0.11735444 0.73793803
-0.68659727 -0.089354228 0.72152617
-0.69807414 -0.065977677 0.71297927
-0.70604621 -0.046086313 0.70666456
-0.71317922 -0.032821712 0.70021292
-0.71787962 -0.022071314 0.69581729
-0.72677186 -0.0094387451 0.68681408
-0.7374719 0.0050892681 0.67535864
-0.74572828 0.020300927 0.66594084
-0.75580413 0.03398979 0.65391499
-0.7621671 0.040693539 0.64610011
-0.76879375 0.050824295 0.63747397
-0.77542799 0.065991849 0.62797812
-0.78266447 0.080975711 0.61715417
-0.78912062 0.097407967 0.60646545
-0.79630309 0.11427289 0.59400597
-0.80286938 0.13292399 0.58114712
-0.80546372 0.14545996 0.57451684
-0.81003577 0.1718902 0.56062092
-0.81343469 0.19339853 0.54856268
-0.81408366 0.21265354 0.54041305
-0.81802928 0.22312783 0.53013402
-0.82456091 0.22562051 0.51883976
-0.82670352 0.23567812 0.51089834
-0.82928739 0.24623406 0.50164849
-0.27289325 -0.55845427 0.78336333
-0.35076536 -0.47265259 0.80843255
-0.43127172 -0.39729704 0.81003689
-0.49740228 -0.30464695 0.81226917
-0.56590003 -0.22303567 0.79373311
-0.60268943 -0.16604818 0.78050846
-0.63241553 -0.13010365 0.76362533
-0.65150856 -0.097617829 0.75233461
-0.66689286 -0.076784865 0.74118688
-0.67245203 -0.067838045 0.73702528
-0.6847439 -0.054730688 0.72672577
-0.69802487 -0.038653376 0.71502951
-0.71172905 -0.024836866 0.70201488
-0.7276836 -0.0062594343 0.68588439
-0.72895425 0.0035577715 0.68455317
-0.74072995 0.014995566 0.67163552
-0.74907869 0.025747582 0.66198049
-0.75992172 0.042077431 0.64865127
-0.76727478 0.057564038 0.63872983
-0.775195 0.071247031 0.62769147
-0.78164876 0.087583549 0.61753893
-0.78778677 0.10811096 0.60638604
-0.79729536 0.12661424 0.5901601
-0.79908468 0.15465315 0.58098716
-0.80217728 0.17980456 0.56936977
-0.8066663 0.1989318 0.556521
-0.81226512 0.21165508 0.54353243
-0.81879591 0.21325968 0.53300429
-0.82167461 0.21786833 0.52667279
-0.82324048 0.22944759 0.51925804
-0.21506217 -0.60011763 0.77045901
-0.28901054 -0.52738271 0.79896207
-0.34414429 -0.47953396 0.80722481
-0.41929504 -0.38853456 0.8205075
-0.47319942 -0.31975429 0.82087727
-0.53015444 -0.24225129 0.81255805
-0.57978903 -0.17401128 0.79596781
-0.60672365 -0.1416771 0.78218541
-0.62561763 -0.11845923 0.77108365
-0.64469044 -0.099747182 0.75790813
-0.65159435 -0.0887545 0.75335744
-0.66866734 -0.073128388 0.73995691
-0.68891389 -0.056580856 0.72263148
-0.70057045 -0.042385993 0.71232329
-0.71194282 -0.029591692 0.70161368
-0.72039121 -0.018219574 0.69332861
-0.73068006 -0.0060789785 0.68269297
-0.74086641 0.013066702 0.67152529
-0.75183143 0.033193734 0.65851931
-0.75946235 0.044562661 0.64902319
-0.76821944 0.061116666 0.63726262
-0.77577916 0.085075425 0.62524304
-0.78143496 0.1052105 0.61505296
-0.78932596 0.12927738 0.60020987
-0.79452275 0.15473754 0.58718813
-0.80058957 0.1805793 0.5713558
-0.80786909 0.19392201 0.5565445
-0.81563272 0.20142817 0.54237437
-0.81856825 0.20789151 0.53546908
-0.81965203 0.21720852 0.53008585
-0.17431641 -0.63118911 0.75578707
-0.21348297 -0.58980291 0.77881805
-0.27561133 -0.54163912 0.79414448
-0.33510768 -0.47851548 0.81161923
-0.39951131 -0.40054572 0.82459314
-0.46602272 -0.32480548 0.8229971
-0.51964061 -0.2483923 0.81748083
-0.56387153 -0.18990785 0.80373124
-0.59106517 -0.15974003 0.79064852
-0.60833218 -0.13668973 0.78182343
-0.63122863 -0.1196558 0.76631123
-0.64630849 -0.10744279 0.75547427
-0.65819437 -0.098258329 0.74640838
-0.68044799 -0.078361789 0.72859451
-0.69114879 -0.066678599 0.71962998
-0.70416177 -0.049588137 0.70830588
-0.71471499 -0.036957666 0.6984387
-0.72571142 -0.015738227 0.68781919
-0.73550905 0.01120867 0.67742218
-0.74336221 0.02776074 0.66831278
-0.75080184 0.039520653 0.65934416
-0.75785212 0.058313975 0.64981509
-0.76569404 0.081123033 0.63806872
-0.77293051 0.10459108 0.62581079
-0.78031048 0.12861209 0.61202491
-0.78646929 0.15280758 0.59842785
-0.79586389 0.17062698 0.5809364
-0.80386002 0.17863717 0.56736041
-0.80834914 0.19111819 0.55681729
-0.81116464 0.20475297 0.54780302
-0.1297085 -0.66584353 0.73472995
-0.17440605 -0.62607803 0.76000581
-0.2183697 -0.58944764 0.77773142
-0.27003502 -0.53388679 0.80127772
-0.32773696 -0.47444177 0.81700275
-0.39894607 -0.3992652 0.82548733
-0.460153 -0.32635682 0.8256818
-0.51012513 -0.26629973 0.81783666
-0.55533473 -0.21834632 0.80245138
-0.57707101 -0.18531955 0.79539029
-0.59932007 -0.16277744 0.78378502
-0.62149386 -0.14644617 0.76960957
-0.64022537 -0.13288719 0.75660589
-0.6550735 -0.12245008 0.74557675
-0.66782344 -0.10520204 0.7368476
-0.68452926 -0.082904431 0.72425585
-0.69247822 -0.065925627 0.7184203
-0.70183764 -0.04714769 0.71077495
-0.71554905 -0.021435492 0.69823354
-0.72509629 0.0012981898 0.68864627
-0.73329763 0.017074785 0.67969334
-0.74094284 0.035198978 0.67064502
-0.74659204 0.056836474 0.66284987
-0.75432925 0.074044781 0.65230725
-0.76147059 0.097573123 0.64081357
-0.76938838 0.12266902 0.62689221
-0.77847208 0.14590663 0.61048544
-0.78864349 0.16059575 0.59350691
-0.79229298 0.17445639 0.58466811
-0.79538718 0.18871616 0.57597347
-0.095923122 -0.68964198 0.71776925
-0.1300385 -0.65900247 0.74081424
-0.16914431 -0.62444535 0.76253407
-0.2031114 -0.5912238 0.78051277
-0.25329931 -0.53949128 0.80298731
-0.31868222 -0.47578305 0.81980005
-0.38454143 -0.42027155 0.8218879
-0.45203069 -0.34882518 0.82096848
-0.49665545 -0.28533952 0.81970404
-0.54171482 -0.25055276 0.80235177
-0.57385506 -0.20834227 0.79201255
-0.59772635 -0.1892094 0.77905264
-0.61924637 -0.17298168 0.76590553
-0.63477261 -0.15670591 0.75664192
-0.64839436 -0.13717331 0.74884461
-0.66041008 -0.11064826 0.74270821
-0.66842936 -0.096924532 0.73743326
-0.67719109 -0.072153233 0.73226098
-0.68908971 -0.051956126 0.72281113
-0.7013463 -0.027105047 0.71230519
-0.70981276 -0.0031187851 0.7043835
-0.71714059 0.011970489 0.69682572
-0.72498245 0.034497181 0.68790289
-0.73407812 0.052751721 0.67701298
-0.74440252 0.072066968 0.66383073
-0.7535916 0.099758396 0.64972915
-0.76325979 0.12312399 0.6342515
-0.77036154 0.14082742 0.6218607
-0.77581115 0.15548239 0.6115082
-0.78169478 0.17316104 0.59913982
-0.063673502 -0.71183907 0.69945038
-0.096780233 -0.68188837 0.7250254
-0.12819212 -0.6502934 0.7487892
-0.16525081 -0.61938861 0.76749588
-0.20113201 -0.58504634 0.78566321
-0.25355749 -0.53762465 0.80415691
-0.30697346 -0.48736324 0.81746215
-0.38166809 -0.42811231 0.819176
-0.4541425 -0.35713182 0.81621777
-0.49525401 -0.30806499 0.8122927
-0.53364937 -0.27060081 0.801245
-0.56435065 -0.23920379 0.79012018
-0.59465814 -0.21240585 0.77541308
-0.61084289 -0.18804657 0.76909651
-0.62751477 -0.16263754 0.76142908
-0.63898659 -0.13898031 0.7565584
-0.64569687 -0.11749287 0.75450048
-0.65454542 -0.09429586 0.75011904
-0.66581133 -0.075289919 0.74231173
-0.67431034 -0.055389319 0.73636784
-0.68623849 -0.030038628 0.72675609
-0.69540598 -0.01166589 0.71852239
-0.70626973 0.011631671 0.70784728
-0.71661145 0.031888922 0.69674322
-0.72445913 0.05278803 0.68729353
-0.73141292 0.073378669 0.67797545
-0.74333999 0.096086461 0.66197663
-0.75667957 0.11997026 0.64268435
-0.76127057 0.13792353 0.63359625
-0.7669387 0.1541986 0.62291879
-0.034644745 -0.73640479 0.67565355
-0.066570336 -0.70426633 0.70680784
-0.097895272 -0.66983528 0.73602799
-0.12518588 -0.64616782 0.75285832
-0.1588672 -0.61904165 0.769122
-0.20517024 -0.58356509 0.78572066
-0.25570078 -0.54335616 0.79961315
-0.30615472 -0.5025501 0.808525
-0.37835626 -0.44169171 0.81348323
-0.43570534 -0.38154033 0.81522257
-0.48517643 -0.34081168 0.80526469
-0.52236945 -0.29077508 0.80161089
-0.55788642 -0.25265986 0.79052244
-0.58176281 -0.21933822 0.78322588
-0.59683087 -0.18936926 0.77970007
-0.61589107 -0.1612293 0.77115712
-0.62707805 -0.13753537 0.76671842
-0.64298196 -0.11946367 0.75650686
-0.6547133 -0.098211368 0.74946982
-0.66747536 -0.074604995 0.74088511
-0.67503803 -0.050208777 0.73607251
-0.68619691 -0.027901603 0.72688052
-0.694185 -0.0020091802 0.71979382
-0.70029959 0.016738467 0.71365279
-0.70827854 0.035821121 0.70502366
-0.71691055 0.056424333 0.69487809
-0.72536316 0.076498321 0.68410255
-0.73868887 0.096382207 0.6671201
-0.74622103 0.11985401 0.65481996
-0.75350027 0.13729531 0.64295206
-0.017173978 -0.75144428 0.659573
-0.040467744 -0.7213355 0.69140253
-0.062837169 -0.69246375 0.71871096
-0.093564357 -0.66384064 0.74199819
-0.11947709 -0.64164298 0.75764075
-0.15432671 -0.6207482 0.76867089
-0.2062339 -0.58921921 0.78120951
-0.25279031 -0.55351372 0.79354875
-0.30743901 -0.51056866 0.80299495
-0.36913929 -0.45264006 0.81169771
-0.4372755 -0.39394448 0.80845401
-0.4857747 -0.34638675 0.8025205
-0.5206235 -0.29311435 0.80189472
-0.54703361 -0.2610231 0.79537486
-0.57223024 -0.21953792 0.79016179
-0.58806318 -0.19168053 0.78577368
-0.60841043 -0.16339454 0.77662023
-0.62746279 -0.14104092 0.76576622
-0.64030869 -0.12471445 0.75792552
-0.65121692 -0.10361176 0.75178529
-0.66390949 -0.075871655 0.74395409
-0.67342934 -0.05025121 0.73754169
-0.68386584 -0.021590716 0.72928825
-0.69380807 0.002713145 0.72015484
-0.69992888 0.021654836 0.71388418
-0.70751036 0.042146718 0.70544507
-0.71554301 0.061227816 0.69588027
-0.72460968 0.074291018 0.68514353
-0.73257102 0.095687356 0.67393147
-0.7422755 0.11761727 0.65969179
-0.0084088999 -0.75853327 0.65158005
-0.021129122 -0.73449818 0.67828164
-0.042673219 -0.70720609 0.70571846
-0.066888413 -0.68237682 0.72793394
-0.096315315 -0.6614015 0.74382216
-0.12415094 -0.64353692 0.75527927
-0.16280597 -0.62358902 0.76461163
-0.21246106 -0.59309933 0.77659094
-0.253595 -0.56653268 0.78404738
-0.31611497 -0.51209252 0.79864421
-0.37314785 -0.46686713 0.80174545
-0.42958924 -0.413038 0.80302721
-0.47270205 -0.35258023 0.80761374
-0.50587136 -0.30885271 0.80542174
-0.53112673 -0.26451643 0.80494438
-0.56078036 -0.23346363 0.79436775
-0.58576405 -0.20446944 0.78426573
-0.60495785 -0.17246254 0.77735621
-0.62351286 -0.14914455 0.76745528
-0.63360763 -0.12577274 0.76336269
-0.64424559 -0.103215 0.75782207
-0.65850595 -0.070765923 0.74924101
-0.67206908 -0.041117811 0.73934598
-0.68404108 -0.013158197 0.7293248
-0.69335992 0.009453204 0.72052943
-0.70233521 0.025622759 0.71138508
-0.71173709 0.041569624 0.70121486
-0.72209497 0.058810327 0.68928964
-0.72855819 0.074504681 0.68091998
-0.7356871 0.09473465 0.67066373
-0.012106747 -0.76100285 0.64863556
-0.016876205 -0.73934848 0.67311144
-0.032561152 -0.71663216 0.69669084
-0.055201794 -0.69518668 0.71670652
-0.082402935 -0.67549576 0.732745
-0.10773734 -0.65951352 0.74393184
-0.13021362 -0.64679715 0.75146381
-0.17066556 -0.62463891 0.76203642
-0.20509399 -0.60204721 0.77167066
-0.2585648 -0.56431262 0.7840252
-0.32538752 -0.50799253 0.79753781
-0.37108438 -0.4577874 0.80791527
-0.41879602 -0.40154954 0.81447398
-0.4600586 -0.35157805 0.81531525
-0.4897058 -0.31178706 0.81423403
-0.52144589 -0.27591774 0.80744262
-0.55645172 -0.24761331 0.79312618
-0.57573134 -0.21617259 0.78854476
-0.5944452 -0.17837845 0.78410206
-0.61186558 -0.14809233 0.77697437
-0.62472132 -0.12994134 0.76996007
-0.63807713 -0.099915802 0.76346212
-0.65747104 -0.064435176 0.75071961
-0.66988526 -0.036511385 0.74156636
-0.68564438 -0.0039206742 0.72792611
-0.69688353 0.012023528 0.71708352
-0.70826483 0.027415618 0.70541428
-0.71939058 0.039614263 0.69347523
-0.72612659 0.059416769 0.68498892
-0.73213329 0.078738172 0.67659526
-0.021404476 -0.7594012 0.65027046
-0.020157199 -0.7426614 0.66936367
-0.033190944 -0.72587095 0.68702964
-0.049005237 -0.7061369 0.70637749
-0.069578098 -0.6880602 0.72231021
-0.09433606 -0.67206494 0.73445859
-0.11356258 -0.65556172 0.74655366
-0.14301771 -0.64251829 0.75280554
-0.16537351 -0.62566768 0.76235921
-0.20792957 -0.60033727 0.77224378
-0.2669733 -0.55098009 0.79066188
-0.31565245 -0.49961085 0.80669234
-0.3713279 -0.44322 0.81588702
-0.40730967 -0.39900995 0.82151682
-0.44272511 -0.36046946 0.82100929
-0.46849298 -0.33326555 0.81819827
-0.51562844 -0.2958951 0.80409788
-0.54646761 -0.26404737 0.79476546
-0.57295681 -0.21295727 0.79143521
-0.59716295 -0.17493772 0.7828111
-0.61165872 -0.14877924 0.77700602
-0.62560242 -0.12157694 0.77061058
-0.63964226 -0.089676375 0.76342382
-0.65268827 -0.063685297 0.75494517
-0.66727453 -0.0351678 0.74398113
-0.68967517 -0.01134183 0.72403006
-0.70348316 0.0040442274 0.71070042
-0.71576225 0.019982734 0.69805808
-0.72515036 0.039434699 0.68746044
-0.73030694 0.064325277 0.68008384
-0.016866385 -0.75961577 0.65015337
-0.025164493 -0.74380731 0.66792023
-0.03311042 -0.73284834 0.67958592
-0.041276222 -0.72098492 0.69172033
-0.058989571 -0.70407224 0.70767401
-0.079965382 -0.68270775 0.72630274
-0.10298722 -0.66296388 0.7415339
-0.1246761 -0.65219798 0.74772566
-0.14197153 -0.64377818 0.75192669
-0.17139474 -0.62718113 0.75978134
-0.22366908 -0.58886941 0.77666271
-0.26871411 -0.54244086 0.79595895
-0.3259248 -0.47804081 0.8156286
-0.36646269 -0.4364262 0.82172822
-0.3990826 -0.39768366 0.82618447
-0.42757559 -0.37328137 0.82331047
-0.46470023 -0.34163935 0.81690651
-0.5052504 -0.30610192 0.80686036
-0.53801789 -0.25640789 0.80298926
-0.5600021 -0.21372664 0.80044898
-0.58915179 -0.17217546 0.7894655
-0.60709101 -0.13993845 0.78221336
-0.62524244 -0.10914582 0.77276069
-0.63962697 -0.083677641 0.76411739
-0.65879623 -0.058664647 0.75003066
-0.67841729 -0.033362445 0.73391889
-0.69442007 -0.01326311 0.71944761
-0.70693327 -0.0028486337 0.70727451
-0.71615843 0.022816124 0.69756471
-0.72428594 0.048403062 0.68779868
0.00099819029 -0.7757221 0.63107387
-0.017870566 -0.74931155 0.66197647
-0.025791147 -0.73576702 0.67674346
-0.034137293 -0.72660865 0.68620297
-0.047631347 -0.71530381 0.69718843
-0.068487643 -0.69463636 0.71609341
-0.088774928 -0.67451574 0.73290349
-0.11008451 -0.66572991 0.73802784
-0.12423121 -0.65860694 0.74216137
-0.15328644 -0.6476106 0.74639385
-0.18782363 -0.62778627 0.75538512
-0.23759451 -0.57705098 0.78138404
-0.28683277 -0.52936649 0.79843477
-0.3380095 -0.47222328 0.81409751
-0.37082401 -0.43746416 0.81921588
-0.40263311 -0.40752225 0.81964151
-0.43031811 -0.38303547 0.81738006
-0.46325097 -0.35671827 0.81126482
-0.49774332 -0.30713877 0.81112106
-0.52762831 -0.25751434 0.80950277
-0.55531755 -0.21191746 0.80418494
-0.58454048 -0.1704599 0.79325648
-0.60822808 -0.13331373 0.7824871
-0.62883864 -0.1112932 0.76952959
-0.64503145 -0.084708305 0.75944646
-0.66507955 -0.061818939 0.74420939
-0.68346795 -0.044090313 0.72864779
-0.69546462 -0.0260289 0.71808875
-0.7047977 0.0044614528 0.70939432
-0.71321415 0.037211452 0.69995778
0.026725073 -0.77820759 0.62743821
0.013110974 -0.75962441 0.65022986
-0.0042584638 -0.74102857 0.67146
-0.013071038 -0.73160003 0.68160879
-0.023096065 -0.7215438 0.69198346
-0.043753334 -0.70291185 0.70992998
-0.06475617 -0.68579933 0.72490407
-0.089025399 -0.6781488 0.72951263
-0.10891603 -0.67326406 0.73133631
-0.12966396 -0.6653126 0.73521861
-0.16546986 -0.65242599 0.73956747
-0.20469975 -0.61902941 0.758222
-0.253548 -0.57665066 0.77665142
-0.30151795 -0.52326731 0.79704344
-0.34383783 -0.4779352 0.80830285
-0.38491823 -0.43857818 0.81208813
-0.41000675 -0.41344656 0.81299226
-0.4355509 -0.39176937 0.81043949
-0.46601781 -0.35244737 0.81154683
-0.4859861 -0.31713515 0.8143972
-0.52054847 -0.26041389 0.8131506
-0.55380671 -0.21804863 0.80358753
-0.58424608 -0.1762865 0.79219921
-0.612707 -0.14774988 0.77637627
-0.63374558 -0.11475564 0.76498214
-0.6552701 -0.087269161 0.75033671
-0.66914634 -0.069665105 0.73985806
-0.68330516 -0.046222443 0.72866834
-0.69220085 -0.014043394 0.72156827
-0.70140606 0.018699797 0.71251656
0.043026088 -0.78153694 0.62237349
0.036970495 -0.76094361 0.64776385
0.023817571 -0.74724065 0.66412659
0.010852568 -0.73501626 0.67796262
-0.00065507644 -0.72562972 0.68808509
-0.017992114 -0.71229993 0.70164456
-0.039368054 -0.69616841 0.71679823
-0.062118803 -0.69101106 0.72017009
-0.080045414 -0.68949344 0.71985521
-0.10142403 -0.6843898 0.72202754
-0.13367717 -0.67261259 0.72782053
-0.1708189 -0.64721505 0.74292233
-0.21196243 -0.61483034 0.75964174
-0.26338316 -0.56913445 0.77891931
-0.30949125 -0.5220985 0.79475048
-0.35540918 -0.47280708 0.80631122
-0.39448486 -0.4461444 0.80332862
-0.41999345 -0.41880485 0.80511366
-0.4431646 -0.39267092 0.8058627
-0.47092791 -0.3474936 0.81084838
-0.50327506 -0.29935434 0.81061778
-0.53429015 -0.25706415 0.80526521
-0.56301847 -0.2231891 0.79573666
-0.59609412 -0.18114549 0.78221359
-0.62262176 -0.1472984 0.76853453
-0.63993777 -0.12243779 0.75860968
-0.65442678 -0.093848385 0.75027866
-0.66838296 -0.065695847 0.74091043
-0.678462 -0.039228774 0.73358736
-0.68903965 -0.001915909 0.72472111
0.065311919 -0.78611069 0.61462536
0.051998278 -0.76189048 0.64561527
0.041502903 -0.75157327 0.65834271
0.027929105 -0.73935695 0.67273417
0.016401909 -0.73024649 0.68298685
0.0058967831 -0.71946837 0.69450018
-0.011723906 -0.70458812 0.70951965
-0.030834867 -0.70008796 0.71339054
-0.048849653 -0.7021531 0.71034832
-0.06646018 -0.69800165 0.71300542
-0.093567437 -0.68964625 0.71807603
-0.12514109 -0.67217339 0.72974148
-0.16769872 -0.64417239 0.74627011
-0.22030299 -0.60984731 0.76128368
-0.26472707 -0.56894542 0.77860175
-0.31646513 -0.52262874 0.79164956
-0.36042652 -0.48920579 0.79421056
-0.39827976 -0.45564884 0.79608879
-0.42090163 -0.43406362 0.79651152
-0.44690215 -0.39455126 0.8028747
-0.47422428 -0.35155642 0.80716753
-0.51148258 -0.2987719 0.80568041
-0.54194554 -0.2614274 0.79871819
-0.56703256 -0.22880454 0.79127906
-0.60189922 -0.18263912 0.77740612
-0.62721023 -0.14613166 0.76501821
-0.64503321 -0.1161566 0.75527466
-0.65887423 -0.086384822 0.74727666
-0.66761478 -0.051913658 0.74269474
-0.67493689 -0.014584686 0.73773131
0.074758996 -0.7879367 0.61120115
0.066966774 -0.76797935 0.63696402
0.055539414 -0.75360931 0.65497205
0.04611034 -0.74364802 0.66697935
0.032231952 -0.7318897 0.68066039
0.020498826 -0.72329173 0.69023827
0.0078552485 -0.71161684 0.70252386
-0.0080877173 -0.70653927 0.70762762
-0.021873887 -0.70888888 0.70498091
-0.033830094 -0.70874885 0.70464927
-0.057687055 -0.7000768 0.71173357
-0.079454747 -0.68711186 0.72219404
-0.10670189 -0.67140852 0.73336574
-0.15520113 -0.6444699 0.748713
-0.20631639 -0.61028474 0.76484383
-0.2512956 -0.57427671 0.77913849
-0.31365336 -0.53612888 0.78370109
-0.35253348 -0.49954848 0.79130996
-0.39255717 -0.46901559 0.79115311
-0.42470219 -0.42379698 0.8000151
-0.45646707 -0.37737254 0.80574672
-0.49664495 -0.32790593 0.80363019
-0.52534515 -0.29195731 0.79923301
-0.55228932 -0.258272 0.79263616
-0.57951469 -0.22138963 0.78431458
-0.60349175 -0.18881682 0.77469085
-0.62809662 -0.15344223 0.76285655
-0.64672497 -0.10831497 0.75499316
-0.6597542 -0.068165943 0.74838346
-0.66275318 -0.02739008 0.74833682
0.088035709 -0.79029169 0.60637345
0.077877113 -0.77022756 0.63299657
0.065508718 -0.75752625 0.6495095