# vtk DataFile Version 2.0
Grain example
ASCII
DATASET UNSTRUCTURED_GRID
POINTS 900 float
20.019142 6.2962687 11.973158
19.991218 5.5441685 11.937604
19.946786 4.7921108 11.900671
19.889856 4.0226792 11.888469
19.81797 3.2080202 11.863565
19.735969 2.3776738 11.836936
19.584321 1.4719176 11.835921
19.416372 0.5479621 11.84144
19.234463 -0.37893952 11.809961
19.024338 -1.2626495 11.769625
18.816708 -2.1288703 11.712645
18.620141 -2.9767312 11.63087
18.35334 -3.8855581 11.530888
18.070326 -4.7583521 11.413737
17.746933 -5.5970641 11.312949
17.36372 -6.4450629 11.179888
16.960903 -7.2947433 11.054009
16.446612 -8.159686 10.882286
15.859829 -9.0061458 10.776863
15.220902 -9.8824455 10.647574
14.566129 -10.71213 10.528487
13.925072 -11.462248 10.45067
13.333572 -12.109338 10.418435
12.732924 -12.745573 10.394959
12.150755 -13.342332 10.410905
11.563018 -13.87961 10.483214
10.948809 -14.402109 10.536306
10.380291 -14.911991 10.55826
9.8166225 -15.395786 10.573166
9.2835531 -15.864454 10.573647
20.638034 6.1917353 11.163119
20.603143 5.4331068 11.126617
20.560746 4.6920829 11.081556
20.505079 3.9262147 11.033995
20.436022 3.1231512 10.992144
20.319024 2.2613761 10.951911
20.159653 1.3381648 10.904691
19.988335 0.36999024 10.871787
19.79411 -0.57908551 10.811287
19.576451 -1.4917093 10.724119
19.364166 -2.3955992 10.628975
19.114531 -3.300979 10.521706
18.795357 -4.2122804 10.408288
18.484339 -5.1043268 10.278799
18.182257 -5.9416456 10.153123
17.759224 -6.8135961 10.024306
17.253831 -7.6966587 9.8612283
16.705004 -8.5467689 9.7231112
16.103769 -9.389464 9.5810261
15.418158 -10.260026 9.4214042
14.753674 -11.106907 9.2648769
14.113104 -11.90562 9.1397971
13.534643 -12.561809 9.0635623
12.940089 -13.205687 9.0223351
12.364889 -13.759722 9.0234254
11.762502 -14.293807 9.0590238
11.135822 -14.828031 9.1371628
10.532576 -15.326315 9.2103599
9.9296004 -15.835002 9.2740801
9.3784696 -16.318321 9.3078947
21.249668 6.1295049 10.328095
21.212599 5.384259 10.287702
21.164421 4.6375487 10.228465
21.110327 3.8496074 10.166425
21.017455 3.0192983 10.107682
20.865251 2.1176846 10.031065
20.686665 1.1952661 9.9911987
20.482853 0.20982357 9.9546071
20.24968 -0.75029343 9.9214376
20.00339 -1.6998364 9.8298062
19.734195 -2.668266 9.6950785
19.445645 -3.5973283 9.5564801
19.097338 -4.5106679 9.436053
18.758763 -5.4120561 9.3037354
18.411588 -6.2741581 9.1550673
17.937981 -7.1695037 8.9850435
17.393594 -8.0469869 8.859139
16.818481 -8.8922476 8.7146365
16.171608 -9.7343263 8.5375614
15.499383 -10.595146 8.375147
14.836985 -11.39465 8.2615717
14.189526 -12.172123 8.1638537
13.578483 -12.857401 8.0877216
12.975104 -13.446449 8.0666609
12.382218 -13.996187 8.0843444
11.784152 -14.531584 8.1068567
11.176282 -15.063555 8.1554886
10.581683 -15.586566 8.1968169
9.9913153 -16.090392 8.2440317
9.4114137 -16.589542 8.2879266
21.863984 6.1032878 9.4641066
21.824904 5.3400967 9.3957922
21.747376 4.5854023 9.3782335
21.628029 3.768334 9.358141
21.458335 2.8743292 9.3161521
21.296144 1.9660471 9.2561585
21.124708 1.015379 9.1751851
20.925418 0.06178909 9.087259
20.667957 -0.93946646 9.014088
20.359043 -1.9326255 8.8835683
20.053903 -2.8972948 8.7326706
19.721682 -3.8290979 8.6036381
19.357288 -4.752291 8.4902299
18.956946 -5.6788032 8.3602544
18.549297 -6.5726419 8.1913745
18.065487 -7.4520897 8.0169297
17.4963 -8.3439902 7.8524788
16.872223 -9.2197699 7.666506
16.226825 -10.051478 7.5124255
15.581729 -10.822082 7.4152901
14.931573 -11.572151 7.341172
14.242929 -12.326807 7.285868
13.583635 -13.018386 7.2499285
12.995181 -13.6086 7.247883
12.401796 -14.175537 7.269019
11.794551 -14.718157 7.3081909
11.189617 -15.257261 7.3522114
10.597007 -15.782194 7.3980564
9.990671 -16.310114 7.4515017
9.4032958 -16.805227 7.5039136
22.399394 6.0761196 8.6737097
22.317745 5.2897284 8.6584892
22.205652 4.4903191 8.6399932
22.069518 3.6320569 8.5849812
21.892645 2.7231118 8.5192646
21.707962 1.7974464 8.447499
21.500368 0.83258393 8.3582477
21.272561 -0.12636173 8.2408885
21.001562 -1.137192 8.0902597
20.676363 -2.1379103 7.9267477
20.328601 -3.1054293 7.8033317
19.970825 -4.0393964 7.6943313
19.558425 -4.9974954 7.5749516
19.116728 -5.9224936 7.4193107
18.661099 -6.8043184 7.2738386
18.178201 -7.6834205 7.0994902
17.570507 -8.5866845 6.9490131
16.930731 -9.4152161 6.8357034
16.289784 -10.165963 6.7623182
15.640208 -10.925482 6.6921781
14.97987 -11.667431 6.6087473
14.274078 -12.420498 6.5431817
13.630825 -13.086803 6.5367477
13.029712 -13.693171 6.5505709
12.43818 -14.275603 6.5487037
11.813807 -14.850075 6.5712845
11.21058 -15.385243 6.6201257
10.611919 -15.917893 6.669491
10.007601 -16.457973 6.7179657
9.4167902 -16.973376 6.7689539
22.86121 6.0205818 7.9647286
22.751709 5.2312685 7.9425572
22.62412 4.4107658 7.9037499
22.447028 3.5235177 7.8481463
22.255347 2.6015616 7.7849203
22.049553 1.6462333 7.7008107
21.818022 0.6881897 7.596565
21.551531 -0.29287438 7.4568981
21.251266 -1.324981 7.2714228
20.92438 -2.2894493 7.1008845
20.581546 -3.2581434 6.9599813
20.17209 -4.2188236 6.8451618
19.71193 -5.1854046 6.7123959
19.250704 -6.0813193 6.5790407
18.754955 -6.9806124 6.455983
18.248119 -7.8604367 6.337546
17.635164 -8.6866449 6.2444426
16.983937 -9.5088928 6.1661921
16.343934 -10.256041 6.0930874
15.670449 -11.008761 6.0079539
14.987174 -11.751353 5.9181104
14.326177 -12.458195 5.8767138
13.694167 -13.114144 5.8628846
13.077785 -13.738315 5.8744326
12.473645 -14.339829 5.8659843
11.849724 -14.933384 5.8563264
11.234412 -15.502769 5.87995
10.635989 -16.035582 5.9293253
10.03048 -16.574843 5.9777463
9.4191342 -17.099311 6.0309667
23.237986 5.9744131 7.2803656
23.112913 5.1612876 7.2600154
22.96805 4.3300265 7.2191609
22.77885 3.4290137 7.1573152
22.570323 2.486341 7.0781443
22.348176 1.5110628 6.9692597
22.084815 0.5420635 6.8528207
21.78006 -0.48972331 6.6892785
21.466408 -1.5040559 6.5259698
21.129311 -2.450167 6.3556062
20.764936 -3.4069213 6.1912801
20.329307 -4.3734626 6.0382771
19.837329 -5.3441738 5.9070761
19.357769 -6.2418706 5.7854619
18.861689 -7.0806406 5.7103473
18.30948 -7.9171605 5.6529551
17.695459 -8.7593161 5.5677846
17.051751 -9.5738446 5.4950534
16.370999 -10.339967 5.4085615
15.674348 -11.096557 5.3212732
15.012633 -11.80124 5.2665629
14.372255 -12.472972 5.2422331
13.75871 -13.117318 5.2172239
13.13143 -13.761193 5.2178405
12.516445 -14.374446 5.2256592
11.88898 -14.976336 5.2107804
11.254951 -15.579922 5.1997152
10.642537 -16.132094 5.206713
10.017285 -16.678197 5.2352671
9.4338069 -17.176548 5.2922815
23.592068 5.9524249 6.6177504
23.440009 5.109804 6.6157802
23.257033 4.2243885 6.5776193
23.062932 3.3176425 6.4972102
22.851773 2.3439099 6.4071633
22.590989 1.3618094 6.2902053
22.29528 0.34478489 6.1416217
21.97466 -0.67607736 5.9773644
21.644039 -1.6685077 5.8227796
21.296124 -2.6349326 5.6459146
20.903855 -3.577711 5.4309991
20.441278 -4.5441345 5.2646032
19.944337 -5.4717232 5.1576927
19.450248 -6.2994913 5.1034233
18.955851 -7.1165518 5.056415
18.375683 -7.959465 4.9762639
17.771515 -8.8067063 4.9050074
17.079352 -9.6368721 4.8228888
16.372733 -10.419438 4.7355401
15.690766 -11.148713 4.6688423
15.052923 -11.818249 4.6359312
14.420863 -12.483826 4.608184
13.799 -13.134326 4.5865921
13.184582 -13.778624 4.5659703
12.571269 -14.393027 4.5738646
11.919776 -15.007798 4.5651703
11.259736 -15.616127 4.5516635
10.634129 -16.190425 4.5340276
10.033148 -16.729478 4.5560908
9.4577498 -17.221512 4.6096769
23.893657 5.9217945 6.0371911
23.711285 5.0334719 6.0189792
23.508576 4.0945145 5.969482
23.309268 3.1485422 5.8663774
23.079664 2.1792304 5.7505157
22.799395 1.1895546 5.6181298
22.473016 0.15622217 5.4482344
22.13992 -0.84555464 5.2906896
21.809886 -1.8491611 5.13107
21.420846 -2.8400237 4.9181889
20.996176 -3.7908093 4.693427
20.53447 -4.6572156 4.5661432
20.028489 -5.5187169 4.504531
19.544107 -6.3268228 4.4566328
19.017073 -7.1525893 4.3952613
18.439687 -7.9969333 4.3241785
17.811345 -8.8418941 4.2398827
17.105645 -9.672312 4.176679
16.388661 -10.467811 4.1011132
15.709008 -11.188123 4.0640888
15.08608 -11.840442 4.0400768
14.448708 -12.50858 4.0161996
13.828196 -13.159455 3.9902415
13.205497 -13.808547 3.961972
12.588359 -14.416993 3.9431313
11.918374 -15.042513 3.9389744
11.266399 -15.643408 3.9131852
10.632476 -16.223858 3.8989667
10.047047 -16.760631 3.9090846
9.4799446 -17.266379 3.9358478
24.16304 5.8550446 5.4652891
23.97177 4.9416392 5.4226373
23.756955 3.9472138 5.335583
23.528607 2.954108 5.2207227
23.265985 1.9989742 5.0806024
22.971975 1.0005415 4.9109119
22.641543 -0.0033467379 4.7557011
22.30591 -1.0206435 4.5993037
21.931213 -2.0465287 4.4057219
21.521533 -3.0506651 4.1836836
21.076436 -3.9229051 4.0351718
20.598275 -4.7396634 3.9427287
20.110584 -5.5549072 3.8674051
19.628138 -6.3587121 3.8087646
19.077527 -7.1835735 3.7320973
18.490534 -7.9979404 3.6618904
17.836961 -8.8471663 3.5841613
17.157477 -9.6846159 3.5138402
16.450857 -10.456259 3.4872878
15.755882 -11.190613 3.4637983
15.117605 -11.86179 3.4463624
14.481188 -12.530584 3.4225282
13.838018 -13.182572 3.3923836
13.194037 -13.828336 3.3625198
12.569287 -14.453363 3.3354266
11.921383 -15.070049 3.3224667
11.256791 -15.686572 3.3081205
10.659263 -16.225509 3.3104174
10.060932 -16.774941 3.3098306
9.4932617 -17.289686 3.3204388
24.417431 5.756637 4.8636104
24.215734 4.7982094 4.7818995
23.980317 3.7989183 4.6638726
23.723172 2.7938778 4.5281016
23.432794 1.8009457 4.3857713
23.121671 0.81885034 4.2244802
22.803771 -0.18123128 4.0616146
22.440893 -1.2044825 3.8736271
22.037221 -2.2430112 3.6657678
21.599601 -3.1659245 3.5395623
21.148721 -4.0004189 3.4172008
20.658202 -4.8256572 3.3232487
20.181905 -5.6133815 3.2392751
19.678948 -6.3906593 3.1603435
19.121269 -7.1844124 3.0759115
18.52234 -7.9880371 2.9963916
17.879597 -8.8355948 2.9174328
17.22622 -9.6567017 2.8702728
16.536657 -10.42587 2.8675763
15.835856 -11.163817 2.8590016
15.160105 -11.860715 2.8414478
14.484591 -12.542787 2.8180574
13.835434 -13.197145 2.7939663
13.178514 -13.856932 2.7644635
[...]
POINT_DATA 900
VECTORS normals float
0.74966825 -0.011242243 0.66171831
0.76942091 -0.046928728 0.63701583
0.77401985 -0.072832769 0.62895839
0.78462869 -0.091916467 0.61311434
0.79821936 -0.10481768 0.59317713
0.81219363 -0.12170141 0.5705526
0.82520889 -0.13799955 0.54771015
0.83497623 -0.15544508 0.52787454
0.84082805 -0.18093388 0.51016775
0.8466486 -0.21430135 0.48709453
0.84420896 -0.25146496 0.47336731
0.84002375 -0.28679585 0.4605521
0.83024464 -0.33624084 0.44456264
0.82145982 -0.37590509 0.42883462
0.81108582 -0.41147857 0.41572247
0.79323479 -0.45249654 0.40746221
0.78011553 -0.4863012 0.39361264
0.75918869 -0.52934746 0.37871334
0.74161045 -0.56000799 0.36933046
0.72990453 -0.57921567 0.36297188
0.71985737 -0.59861287 0.35138012
0.70380763 -0.6240021 0.33952349
0.68395056 -0.64400271 0.34274208
0.66374005 -0.66067025 0.35066219
0.65968317 -0.66814073 0.34410185
0.64017649 -0.68624922 0.34530577
0.62419552 -0.69662471 0.35368625
0.61009218 -0.70911803 0.35346733
0.59185147 -0.72047338 0.36142765
0.57005951 -0.73160822 0.37387373
0.77740692 -0.041476719 0.62762901
0.79115226 -0.072362734 0.60732342
0.79730422 -0.096658691 0.59578778
0.8051798 -0.11733547 0.58130704
0.81177875 -0.1352268 0.5680924
0.82533286 -0.15281277 0.54357513
0.83683387 -0.17239646 0.5196042
0.84947438 -0.19000169 0.49223231
0.85772035 -0.21095507 0.468843
0.86234046 -0.23938303 0.44616667
0.8647357 -0.2777217 0.41845289
0.85461935 -0.32498268 0.40498399
0.84571347 -0.36759847 0.38683342
0.8361954 -0.39911936 0.37613958
0.82448267 -0.43567154 0.36113521
0.81006644 -0.47506201 0.34366911
0.78784766 -0.51657897 0.33532406
0.76846063 -0.55262239 0.32260927
0.75231347 -0.58287103 0.30705993
0.74528858 -0.6000928 0.29057454
0.73667095 -0.61799493 0.27458728
0.71880746 -0.64543999 0.25830806
0.70238217 -0.67005946 0.24016578
0.68945545 -0.68474981 0.23615436
0.67239335 -0.70236844 0.23359315
0.65863412 -0.71687425 0.22867534
0.63806149 -0.73144088 0.24056552
0.62568221 -0.74034129 0.24579778
0.61200617 -0.74984746 0.2513508
0.60987773 -0.74886264 0.25933358
0.79632203 -0.074084608 0.60031882
0.80776707 -0.099138799 0.58110572
0.81422201 -0.12107606 0.5677879
0.82082258 -0.14250227 0.5531215
0.82965258 -0.1652465 0.53326371
0.83837726 -0.18665036 0.51213789
0.84782376 -0.2053931 0.488885
0.8588706 -0.22650232 0.45938871
0.86601837 -0.24508978 0.43582471
0.87399089 -0.26711499 0.40594273
0.87445062 -0.30209809 0.37956931
0.86770501 -0.34542524 0.35744847
0.85572671 -0.3890678 0.34111296
0.84494314 -0.41900565 0.33242346
0.83366376 -0.45407318 0.31436012
0.81558004 -0.49549259 0.29885832
0.79461923 -0.53861858 0.28012551
0.77154214 -0.58007589 0.26121772
0.76190473 -0.60206106 0.23879627
0.75449454 -0.6183157 0.22005382
0.74064271 -0.64181886 0.19878865
0.72172833 -0.66812908 0.18086389
0.70390333 -0.69082401 0.16517353
0.69310102 -0.70307697 0.15904006
0.68351502 -0.71187212 0.16138556
0.66215992 -0.73161617 0.16211732
0.64773057 -0.74325449 0.16738541
0.63756995 -0.74915959 0.17962313
0.63134354 -0.74977288 0.19810596
0.62173353 -0.75600132 0.20471792
0.81194559 -0.10709827 0.57382429
0.8234348 -0.12974786 0.55237725
0.83129507 -0.14504467 0.53657297
0.83848091 -0.16759636 0.5185183
0.84684634 -0.19031402 0.49662043
0.85377862 -0.21821477 0.47269903
0.85927157 -0.2368192 0.45339721
0.86559294 -0.2588329 0.42866582
0.87342812 -0.2812491 0.39752014
0.87940122 -0.2989426 0.37052235
0.877059 -0.33313472 0.34610514
0.86647796 -0.37695854 0.32728917
0.85586366 -0.40961952 0.31576771
0.85145373 -0.43647159 0.29072168
0.83687721 -0.47969592 0.26368233
0.81318786 -0.53128419 0.23761864
0.79648285 -0.56637471 0.21174219
0.77550041 -0.60253445 0.18855065
0.76731338 -0.61769171 0.17229956
0.76081328 -0.62905087 0.15955611
0.7404506 -0.65662443 0.14344777
0.71754769 -0.68382224 0.13233464
0.70099748 -0.70169263 0.12739696
0.69594408 -0.70603024 0.13108444
0.68095733 -0.72046825 0.13123497
0.6700609 -0.73065339 0.13101153
0.65708653 -0.74148882 0.1357631
0.64720305 -0.74815092 0.14628199
0.64048986 -0.75098804 0.16059174
0.62856094 -0.75800516 0.17418184
0.82694274 -0.13957024 0.54468877
0.8391532 -0.15430593 0.5215473
0.84561234 -0.17024561 0.50592114
0.85617725 -0.19093135 0.48011012
0.86079105 -0.21149506 0.46293478
0.86636699 -0.24136542 0.43720815
0.86780448 -0.25995443 0.42348446
0.87257824 -0.28709209 0.39520291
0.87772192 -0.30743896 0.36753982
0.88123803 -0.32517716 0.34304424
0.87663838 -0.3532829 0.32664407
0.86632492 -0.39342394 0.3077316
0.85797707 -0.42991601 0.28115398
0.84765485 -0.46453132 0.25630432
0.83317428 -0.50347705 0.22876074
0.8124965 -0.55216571 0.18698256
0.786378 -0.59654169 0.16046075
0.77343565 -0.61654785 0.14719393
0.76502879 -0.62864089 0.13979119
0.75497516 -0.64388961 0.12417197
0.73717291 -0.66559898 0.1164221
0.71684697 -0.68846923 0.11018411
0.70547029 -0.70067062 0.1066412
0.69594342 -0.70985843 0.10846088
0.68377409 -0.72096753 0.11251145
0.66782636 -0.73555919 0.11384475
0.66050808 -0.74097217 0.12119947
0.65699103 -0.74296985 0.12790066
0.64829771 -0.74945352 0.13427396
0.63506384 -0.75938206 0.1415373
0.84408526 -0.16632526 0.50976071
0.85265946 -0.17503609 0.49227452
0.85881662 -0.1882079 0.47645755
0.86364843 -0.2120619 0.45731952
0.86854993 -0.23659769 0.43547969
0.87240164 -0.25817449 0.41504374
0.87467157 -0.28005033 0.39562793
0.87719766 -0.30494815 0.37085157
0.87706661 -0.33164 0.34751845
0.87879578 -0.34255085 0.33223018
0.87770213 -0.37114139 0.30313866
0.86819541 -0.40842384 0.28182743
0.85359596 -0.45471594 0.25417977
0.83631739 -0.50052375 0.22371676
0.82297 -0.53667374 0.18628383
0.80142826 -0.57636823 0.15972607
0.78463551 -0.60399673 0.13976788
0.77551861 -0.61796313 0.12919927
0.76443392 -0.63236057 0.12554238
0.75043532 -0.65099973 0.11421987
0.72915488 -0.67690619 0.10065376
0.71202054 -0.69645394 0.08932329
0.71304394 -0.69477425 0.094112063
0.70155765 -0.70623336 0.095138318
0.68558114 -0.72174281 0.095214559
0.67065154 -0.73547035 0.096487675
0.66433558 -0.74064903 0.10048507
0.66136229 -0.74272154 0.10471214
0.65235041 -0.7495603 0.11224215
0.64160626 -0.75823194 0.11586951
0.85598028 -0.18588083 0.48243764
0.86295169 -0.18941634 0.46843978
0.86855351 -0.20474044 0.4513271
0.87062604 -0.23273709 0.43340944
0.87425398 -0.2536526 0.41393277
0.87741551 -0.2761879 0.39225281
0.87804634 -0.300007 0.37286783
0.87876279 -0.32685216 0.34776949
0.88170256 -0.33855393 0.32860591
0.88261171 -0.3599775 0.30234545
0.87935782 -0.38720962 0.27712548
0.86486438 -0.43852274 0.244351
0.84657863 -0.48473153 0.21986351
0.82949207 -0.52560696 0.1888921
0.8114973 -0.56475335 0.1500859
0.79746023 -0.58815087 0.13466898
0.78619207 -0.60471367 0.12737114
0.77242993 -0.62283336 0.12421996
0.75820477 -0.64177112 0.11513195
0.74062687 -0.66418564 0.10163302
0.72760899 -0.67963406 0.093181045
0.71827202 -0.69074524 0.083404537
0.71279909 -0.69661515 0.081515587
0.70398003 -0.70532592 0.08323142
0.68486407 -0.72421383 0.080470671
0.66949145 -0.73843705 0.08057245
0.66750898 -0.73991794 0.083385868
0.66271512 -0.74409262 0.084468023
0.65562882 -0.74943199 0.092209234
0.64620942 -0.75691769 0.09741142
0.86528535 -0.19910665 0.4600411
0.87035027 -0.20435139 0.44803004
0.87410423 -0.21923829 0.43344707
0.87414222 -0.24723308 0.41803251
0.87717368 -0.26991104 0.39713267
0.87771165 -0.2933002 0.37894228
0.87921162 -0.31805482 0.3547225
0.88244785 -0.33945985 0.32565748
0.87936112 -0.35760148 0.31439656
0.8816146 -0.38378641 0.27470654
0.87671137 -0.41484505 0.24347639
0.86112865 -0.46275883 0.21050347
0.84541609 -0.50454127 0.17524195
0.82457633 -0.54548749 0.15005754
0.81108406 -0.5694486 0.13368224
0.79508011 -0.593834 0.12332397
0.78425399 -0.60900446 0.11857171
0.77272854 -0.62450382 0.11351466
0.75471299 -0.64704115 0.10837917
0.73672604 -0.66971209 0.09338343
0.72167646 -0.68746416 0.081093269
0.71470768 -0.69512013 0.077465788
0.71048081 -0.70035385 0.068713209
0.70361549 -0.7073718 0.067456554
0.68697824 -0.72366588 0.066095311
0.6733735 -0.73622716 0.067362433
0.6655587 -0.74322687 0.068157419
0.6666036 -0.74195333 0.07172789
0.65782512 -0.74917027 0.077524295
0.64797403 -0.75703031 0.083873512
0.87048559 -0.20958381 0.44534196
0.87549515 -0.217432 0.43154557
0.87774976 -0.23748535 0.41612025
0.88039988 -0.25733277 0.39834144
0.88051274 -0.28606415 0.37797436
0.88242788 -0.31146915 0.35257341
0.88358451 -0.33210041 0.3301329
0.88609896 -0.3545365 0.29855066
0.88297538 -0.37754384 0.27895362
0.88215951 -0.40336225 0.24309152
0.87172813 -0.44129239 0.21295796
0.85611389 -0.48666182 0.17386568
0.840782 -0.52088528 0.1475268
0.82778908 -0.54567007 0.13042016
0.81124612 -0.57300259 0.11639481
0.79630281 -0.59528774 0.10739801
0.78643897 -0.60967164 0.099066838
0.77065833 -0.6308009 0.090421028
0.75258442 -0.65347773 0.081139082
0.73276911 -0.67667216 0.071862544
0.71799827 -0.6935545 0.058827207
0.71411109 -0.69777652 0.056154062
0.70974168 -0.70224863 0.055799722
0.70134219 -0.71101525 0.050758679
0.68768123 -0.72415721 0.051873597
0.67367139 -0.73720864 0.051867807
0.67069231 -0.7398024 0.05351855
0.66995486 -0.74037391 0.054835748
0.6656241 -0.74407969 0.057358196
0.6532716 -0.75438655 0.064320742
0.87726302 -0.21857575 0.42735727
0.8809928 -0.22888258 0.41408266
0.88529906 -0.25178413 0.39096077
0.88647505 -0.27930598 0.3689853
0.88871607 -0.3050692 0.34222292
0.891256 -0.32817928 0.31298738
0.89026603 -0.34964667 0.29184517
0.8892597 -0.37039986 0.26836754
0.88536274 -0.39680253 0.24224074
0.87936274 -0.42582464 0.21305996
0.86382915 -0.46825398 0.18584243
0.85002597 -0.50225969 0.15871688
0.83697886 -0.5315153 0.1302224
0.8243085 -0.5550163 0.1116799
0.80860251 -0.58022329 0.097482905
0.79707248 -0.59731402 0.088833667
0.78394034 -0.61569663 0.07971952
0.76736645 -0.63730383 0.070658068
0.75112827 -0.65742016 0.060042178
0.7317839 -0.67978308 0.048859946
0.71975086 -0.69304067 0.040661174
0.71260462 -0.70088478 0.030905977
0.71204473 -0.70123222 0.035576403
0.70354602 -0.7099477 0.031579523
0.69097497 -0.72199512 0.035730073
0.67387059 -0.73782597 0.0388749
0.67150734 -0.73985238 0.041186675
0.6694405 -0.74173648 0.040944079
0.66609179 -0.74486603 0.038682376
0.65860445 -0.75126628 0.042885318
0.88530979 -0.23153616 0.4032587
0.89188865 -0.24492702 0.38019126
0.89561003 -0.27002125 0.35351265
0.89573734 -0.29785609 0.33005509
0.89465413 -0.32212845 0.30955976
0.89246911 -0.3457782 0.28971767
0.88960225 -0.36838902 0.26999512
0.88993027 -0.38806012 0.23965279
0.88541887 -0.41347864 0.21229421
0.87416277 -0.44461648 0.19533469
0.85762094 -0.48419774 0.17331724
0.84452589 -0.51678765 0.14038002
0.83468793 -0.5394537 0.11084117
0.81852256 -0.56692575 0.092822514
0.80473389 -0.58873174 0.076146616
0.79625547 -0.60133131 0.066165641
0.7848814 -0.61693441 0.057906107
0.76498736 -0.64239466 0.046080719
0.74572856 -0.6653588 0.034446683
0.72760605 -0.68542985 0.02784506
0.71897866 -0.69467709 0.022213285
0.71374773 -0.70011173 0.020192816
0.71092783 -0.70302495 0.018372367
0.7039365 -0.70999994 0.019325909
0.69035649 -0.72316398 0.021018413
0.67863276 -0.73400093 0.026461454
0.6734144 -0.73866527 0.029776865
0.66996491 -0.74187252 0.027788258
0.66619782 -0.74536427 0.024750215
0.66157635 -0.74928312 0.029858706
0.89448888 -0.24776248 0.37216043
0.90052011 -0.26471155 0.34495121
0.90563567 -0.28504298 0.3139658
0.90534182 -0.31340009 0.28659478
0.90180862 -0.33206739 0.27653655
0.89947672 -0.35346136 0.2569177
0.89335372 -0.38046028 0.23910061
0.88967001 -0.40254114 0.21551775
0.88258539 -0.42529405 0.20041958
0.87106364 -0.45578265 0.18305823
0.85174548 -0.50154897 0.15158584
0.837248 -0.53363215 0.1193839
0.82640368 -0.55605084 0.088681521
0.8137428 -0.57649818 0.073976428
0.80288097 -0.59350272 0.056005949
0.79587524 -0.60355977 0.04793964
0.78454722 -0.61885541 0.038776722
0.76746716 -0.64039295 0.029850074
0.74736536 -0.66417203 0.017903481
0.72982498 -0.6835082 0.01311632
0.7203076 -0.69357627 0.010436712
0.71479677 -0.69922275 0.012373824
0.71115254 -0.70293228 0.012176781
0.70439989 -0.70968808 0.012791507
0.69130729 -0.72243913 0.013264005
0.68223401 -0.73102229 0.012774173
0.67532376 -0.73729153 0.018412609
0.66938034 -0.74271414 0.017483201
0.66774639 -0.7441954 0.016969224
0.6654982 -0.74623442 0.015695263
0.90342369 -0.27102338 0.33222276
0.90826271 -0.28690878 0.30453604
0.91028252 -0.30561918 0.27925375
0.90969477 -0.32828074 0.25433674
0.90749344 -0.34585733 0.23840797
0.90275943 -0.36824105 0.22231497
0.89557823 -0.39441961 0.20584656
0.88897718 -0.41631034 0.19080165
0.88389812 -0.43372912 0.17493759
0.86971933 -0.46848456 0.15527555
0.84667677 -0.51800097 0.12171049
0.83001599 -0.54938901 0.096151796
0.81789308 -0.57125071 0.068728031
0.80757029 -0.58732479 0.053663884
0.79874412 -0.60016736 0.04250836
0.79246274 -0.60895934 0.034224717
0.78230242 -0.62236615 0.025754544
0.76509412 -0.64372238 0.015889795
0.74625247 -0.66561005 0.0083970353
0.72935131 -0.68411694 0.0055385319
0.72044939 -0.69349402 0.0043271675
0.71573867 -0.69834973 0.0050814771
0.71112455 -0.70301355 0.0085922101
0.70440601 -0.70976519 0.0067485363
0.69335092 -0.72058618 0.0044783729
0.68425846 -0.72920229 0.0073747691
0.67641226 -0.73644703 0.010593531
0.67154501 -0.74086221 0.012267017
0.6685669 -0.74355948 0.011730329
0.66769763 -0.74429311 0.014409828
0.91267615 -0.29098 0.28697193
0.91693524 -0.30163653 0.26123778
0.91687905 -0.31579893 0.24413899
0.91299095 -0.33822436 0.22814864
0.90983519 -0.35623557 0.21282889
0.90319039 -0.38225565 0.19526325
0.89667568 -0.40485614 0.17906489
0.89037978 -0.42274536 0.16884966
0.88233049 -0.44637595 0.14913556
0.86540616 -0.48647899 0.12004319
0.84253071 -0.53082153 0.09149046
0.82509226 -0.56068945 0.0696427
0.812618 -0.58061006 0.050437562
0.80267735 -0.59515245 0.038763709
0.79447172 -0.60673774 0.026153469
0.78873391 -0.61449689 0.017099273
0.77852422 -0.6275608 0.0082145478
0.76441133 -0.64472003 0.0033774202
0.74757055 -0.6641814 0.0011587382
0.73236651 -0.68091056 -0.00033354537
0.72187752 -0.69201947 0.0013800489
0.71697606 -0.69709671 0.0012266752
0.71094764 -0.70324476 0.00051077601
0.70295567 -0.71123325 -0.00077157043
0.69324488 -0.72069375 -0.0034708031
0.68418114 -0.72930885 -0.0021833619
0.67682449 -0.73614435 -0.00031813889
0.67236538 -0.74021938 -0.00025379603
0.66928577 -0.74300483 -0.00061392678
0.66893073 -0.74330119 0.0059166209
0.92025921 -0.30302481 0.24758623
0.92128926 -0.31108399 0.23335136
0.91993886 -0.32568242 0.21827382
0.91426675 -0.35019231 0.20367047
0.90871018 -0.37592518 0.1814554
0.90331372 -0.39466486 0.1681189
0.89807777 -0.41089087 0.15692357
0.88993883 -0.43344409 0.1418982
0.87921051 -0.46246254 0.11453065
0.85856386 -0.50720791 0.074888174
0.83860637 -0.5416955 0.057492179
0.82105865 -0.56917511 0.043616324
0.80869698 -0.58743164 0.030549538
0.7975208 -0.60293143 0.020838945
0.79151682 -0.61105032 0.010891865
0.78453896 -0.62007886 0.00091300409
0.77771233 -0.62859596 -0.0055361571
0.76404875 -0.64502118 -0.013311248
0.74877548 -0.66264945 -0.015198596
0.73407149 -0.67896432 -0.01210368
0.72360044 -0.69011177 -0.012171357
0.71725903 -0.69670824 -0.011709407
0.70931046 -0.70476806 -0.013440773
0.7019615 -0.71205395 -0.015139884
0.69311907 -0.72066123 -0.015275578
0.68527287 -0.7281181 -0.015656531
0.6781363 -0.73473452 -0.017214874
0.67206633 -0.74029829 -0.016890512
0.66793088 -0.74401477 -0.017616912
0.66767909 -0.74421208 -0.018788442
0.92463947 -0.30856101 0.22323072
0.92301068 -0.32030087 0.21321032
0.91833729 -0.33939795 0.20363114
0.91271811 -0.36524239 0.18314923
0.90693478 -0.38668575 0.16716288
0.90472953 -0.39779819 0.15238467
0.89728573 -0.41994978 0.13609009
0.88830849 -0.4463301 0.10815482
0.87428377 -0.47875969 0.080106507
0.85434409 -0.5183394 0.037688649
0.83363767 -0.55195832 0.019754904
0.82042516 -0.57148305 0.017597826
0.8043068 -0.59417002 0.0072497305
0.79445714 -0.60731962 -0.00085095961
0.78955597 -0.61361857 -0.0085803709
0.78084126 -0.6244598 -0.018354551
0.77215959 -0.63484878 -0.02714015
0.76307657 -0.64542823 -0.033712883
0.7489513 -0.6617422 -0.034193873
0.73673511 -0.67523141 -0.035831833
0.724133 -0.68898644 -0.030480798
0.71505356 -0.69848542 -0.028574698
0.70941729 -0.70408597 -0.031465162
0.7014424 -0.71210217 -0.029817091
0.69162426 -0.72148009 -0.033501693
0.68222559 -0.73023028 -0.036496342
0.67653685 -0.7352748 -0.04085166
0.67114637 -0.74030479 -0.038876262
0.66657652 -0.74444005 -0.038532408
0.66571108 -0.74508511 -0.040950416
0.93688969 -0.30383775 0.17297497
0.9309755 -0.32167466 0.17265581
0.92257306 -0.34969013 0.16302075
0.91381006 -0.3781147 0.14825803
0.90905776 -0.39506141 0.13244043
0.90503689 -0.40967498 0.1143444
0.89742225 -0.43075241 0.095318809
0.88373096 -0.46306807 0.067731522
0.86841619 -0.49498434 0.029048647
0.84522505 -0.5344096 -0.00099620333
0.83203053 -0.5547008 -0.005677131
0.8183034 -0.57469679 -0.010155861
0.80397468 -0.59422567 -0.022816075
0.79134894 -0.61068404 -0.028842005
0.78720358 -0.61562819 -0.036227773
0.77801268 -0.6268012 -0.04262071
0.7696544 -0.63633041 -0.052112508
0.76232986 -0.64473113 -0.056346676
0.75143281 -0.65727936 -0.057728507
0.73803596 -0.6726102 -0.053837182
0.72515875 -0.68667035 -0.051270087
0.71456362 -0.69782489 -0.049388925
0.70812762 -0.70423279 -0.051102316
0.70064573 -0.71170959 -0.050645973
0.69108572 -0.72059606 -0.056052129
0.68033239 -0.73066358 -0.057258856
0.67336382 -0.73686631 -0.060076724
0.6686784 -0.74051727 -0.067107215
0.6660046 -0.74321853 -0.063750177
0.6634639 -0.74576152 -0.060459992
0.95108099 -0.29353334 0.096348979
0.94154733 -0.32277074 0.096476319
0.9298495 -0.35392651 0.10057797
0.91992856 -0.3791209 0.099993956
0.9125236 -0.39952793 0.087624802
0.90311382 -0.4244889 0.064765711
0.89422541 -0.44408524 0.056117818
0.87603716 -0.48196455 0.016403261
0.85797391 -0.51357793 -0.010884887
0.84186093 -0.53875001 -0.031915613
0.83128527 -0.5546397 -0.036600611
0.81648109 -0.57526502 -0.049282704
0.80092501 -0.59620605 -0.055294553
0.78903096 -0.61189414 -0.054915451
0.78342464 -0.61778937 -0.067691396
0.77520435 -0.62795306 -0.068798078
0.76894944 -0.63514254 -0.072874684
0.75989943 -0.64514251 -0.079649239
0.75164301 -0.65510225 -0.07664083
0.73973963 -0.6687064 -0.074946868
0.72695743 -0.68317443 -0.069322403
0.71540571 -0.69555626 -0.066303457
0.70764507 -0.70318076 -0.069103439
0.69924319 -0.71125992 -0.071890787
0.6914549 -0.71869992 -0.073215791
0.68123034 -0.72824098 -0.074768332
0.67074818 -0.73750912 -0.07859498
0.66740352 -0.74050204 -0.078925696
0.66491336 -0.74309223 -0.075525922
0.66154217 -0.74606493 -0.075822714
0.96226396 -0.27177202 -0.013712585
0.95026387 -0.31131898 0.0088918604
0.93626368 -0.35071981 0.020147663
0.92352545 -0.38299805 0.020328297
0.91276148 -0.40700474 0.034837053
0.90234603 -0.43093013 0.0084177911
0.88571575 -0.46421181 -0.0038739385
0.86744902 -0.49631825 -0.034646646
0.85137217 -0.52153144 -0.056306267
0.84001688 -0.53831716 -0.067722057
0.82946257 -0.55414438 -0.070113121
0.8122519 -0.57797476 -0.078689412
0.79788776 -0.59720308 -0.081997545
0.78691584 -0.61103422 -0.086026993
0.78139428 -0.61766241 -0.088972551
0.77266699 -0.62753898 -0.095815232
0.7669457 -0.63448242 -0.096053906
0.76104419 -0.64212351 -0.092136542
0.75238231 -0.65171114 -0.095882513
0.74202289 -0.66411572 -0.091391103
0.72834321 -0.6798404 -0.085634101
0.71476364 -0.69470698 -0.080592492
0.70757068 -0.70207715 -0.080196045
0.6999383 -0.70888122 -0.087027515
0.69275483 -0.71588731 -0.087155644
0.68163337 -0.72617629 -0.089688072
0.6697155 -0.7367774 -0.092952741
0.66566998 -0.74030557 -0.093974148
0.66407474 -0.74180274 -0.093452856
0.66168656 -0.74386061 -0.094033459
0.96311277 -0.23648626 -0.1284058
0.95397772 -0.28269009 -0.10006404
0.94045555 -0.32894521 -0.085664522
0.9216812 -0.38220005 -0.066534807
0.90863531 -0.41412936 -0.05365396
0.89528953 -0.4411596 -0.06192626
0.87782808 -0.47383556 -0.069983687
0.85995612 -0.50170209 -0.093650828
0.84737853 -0.52077682 -0.10363939
0.83876098 -0.53421848 -0.10531205