# vtk DataFile Version 2.0
Grain example
ASCII
DATASET UNSTRUCTURED_GRID
POINTS 900 float
-3.3227576 -5.0127469 24.094806
-3.1183892 -4.7489364 24.300325
-2.9225614 -4.5106827 24.502128
-2.7169905 -4.2717949 24.696429
-2.4937527 -4.0474599 24.893999
-2.2719721 -3.8496027 25.068132
-2.0361505 -3.668662 25.233245
-1.7838698 -3.5026157 25.389511
-1.532267 -3.3821737 25.519933
-1.2448599 -3.3013781 25.638609
-0.9430616 -3.2358422 25.747652
-0.62942544 -3.1706485 25.850619
-0.27332451 -3.1170254 25.943506
0.12273488 -3.0880023 26.007815
0.52689952 -3.0379035 26.054305
0.95177412 -2.9739141 26.092167
1.3974456 -2.9327936 26.115205
1.9037729 -2.9303507 26.1024
2.4516969 -2.9293825 26.004095
3.0169655 -2.9426503 25.826752
3.6252717 -2.9144413 25.544488
4.22789 -2.8771988 25.243648
4.8252369 -2.8528963 24.934706
5.423816 -2.8437928 24.598296
6.0011199 -2.800462 24.271175
6.55353 -2.6763323 23.941602
7.0948565 -2.5160874 23.636868
7.6524977 -2.2927061 23.310153
8.2226191 -2.0156197 22.940664
8.7905685 -1.6585116 22.532739
-3.2364178 -6.4033237 23.543334
-3.0012706 -6.1635527 23.762628
-2.7721432 -5.9302058 23.958708
-2.527127 -5.7163182 24.147814
-2.2808778 -5.5041273 24.338283
-2.028225 -5.2995464 24.523562
-1.7499168 -5.1171676 24.707669
-1.4667883 -4.9423591 24.885833
-1.1658728 -4.7936319 25.037564
-0.84491251 -4.6670113 25.197201
-0.51777882 -4.561185 25.322558
-0.16566834 -4.4413231 25.429478
0.22504663 -4.3328648 25.512737
0.64035744 -4.2352531 25.565593
1.07017 -4.1514463 25.608187
1.5500943 -4.0888623 25.625325
2.0552919 -4.0496928 25.606533
2.6576215 -3.9961539 25.497107
3.296633 -3.9354553 25.319301
3.9466276 -3.8952157 25.062421
4.5562993 -3.8462841 24.759379
5.1604575 -3.8111621 24.460244
5.7520328 -3.7268933 24.155727
6.33358 -3.6404574 23.833841
6.907199 -3.4494965 23.506256
7.4748254 -3.2386543 23.178313
8.0402786 -2.9917875 22.844231
8.6409413 -2.6528234 22.448219
9.2349285 -2.2539171 22.026937
9.8088203 -1.7997419 21.634937
-3.2061418 -7.5264372 22.946247
-2.9448883 -7.3330273 23.17588
-2.6757142 -7.1787326 23.368893
-2.389919 -7.0173578 23.566291
-2.1046697 -6.8625872 23.754807
-1.8046461 -6.6981922 23.945662
-1.4966627 -6.5319148 24.13932
-1.1684614 -6.3378307 24.32933
-0.82720864 -6.1580958 24.496948
-0.46615466 -5.9925067 24.656915
-0.089021243 -5.82952 24.802108
0.29847051 -5.6667482 24.940484
0.72121005 -5.5226591 25.021901
1.1488933 -5.381294 25.071734
1.6483585 -5.2689065 25.062907
2.1955925 -5.1708403 25.024309
2.7993419 -5.0831481 24.922995
3.4546917 -4.9733886 24.741519
4.1352174 -4.8463868 24.516767
4.8045821 -4.6909154 24.250102
5.4478725 -4.546363 23.953041
6.0570293 -4.4392178 23.645965
6.6483828 -4.3503643 23.339201
7.2351664 -4.184877 23.017909
7.8437747 -3.9534073 22.699287
8.4096487 -3.6764989 22.386496
9.006169 -3.2994014 21.988304
9.6139375 -2.836884 21.572935
10.203627 -2.3445397 21.170397
10.768006 -1.8466464 20.788692
-3.2019758 -8.5023464 22.268219
-2.9137708 -8.3252983 22.482832
-2.6244202 -8.1541083 22.700716
-2.3163712 -7.9891254 22.906726
-1.9755384 -7.8124266 23.110715
-1.6420641 -7.6500714 23.306292
-1.3115295 -7.4983803 23.482064
-0.94829599 -7.3391357 23.657722
-0.5460002 -7.1851036 23.818755
-0.16530885 -7.0153808 23.974161
0.24725795 -6.8210559 24.132815
0.71575769 -6.6186552 24.266717
1.1946825 -6.4438386 24.359771
1.7165266 -6.3049492 24.384052
2.2801223 -6.1772466 24.362597
2.8954675 -6.0445347 24.292457
3.5708704 -5.8900257 24.134479
4.2781675 -5.736882 23.921608
4.9368245 -5.5916837 23.689939
5.6052521 -5.4137944 23.435783
6.2667559 -5.2356 23.143134
6.9155773 -5.0687027 22.838185
7.5301393 -4.8919009 22.542033
8.1489505 -4.6365602 22.222824
8.7659134 -4.3578798 21.897704
9.3759396 -3.9241463 21.496846
9.9561864 -3.430375 21.118559
10.541844 -2.8938992 20.734515
11.126769 -2.3564156 20.349661
11.691192 -1.857982 19.961868
-3.1846465 -9.4891445 21.531083
-2.8827846 -9.2733895 21.757344
-2.5692046 -9.0860619 21.955461
-2.2313669 -8.9009614 22.154136
-1.869987 -8.733014 22.348297
-1.5137795 -8.5591532 22.549014
-1.1132265 -8.398713 22.729673
-0.70635561 -8.2500441 22.907047
-0.29886823 -8.102223 23.0851
0.097782053 -7.9566039 23.25917
0.55675958 -7.7987371 23.397782
1.0828125 -7.6253922 23.489905
1.6661228 -7.4456573 23.546965
2.2859702 -7.2776928 23.579577
2.9437074 -7.118676 23.575335
3.6504643 -6.9379154 23.45474
4.36485 -6.7215118 23.285856
5.0686124 -6.5010521 23.09844
5.7347571 -6.293677 22.864585
6.3986652 -6.0936525 22.609701
7.055795 -5.8842995 22.347315
7.7127627 -5.6955834 22.047645
8.3690259 -5.4000469 21.750406
9.0579417 -5.0486153 21.418703
9.7051118 -4.5326721 21.031731
10.298678 -4.0229951 20.652169
10.888018 -3.4824253 20.262057
11.473726 -2.9380623 19.880207
12.059831 -2.3862894 19.50093
12.602079 -1.8713136 19.147857
-3.1605686 -10.383727 20.765653
-2.8213105 -10.180386 20.968167
-2.4884217 -9.9939568 21.175643
-2.1273509 -9.8255859 21.369463
-1.7614859 -9.6552528 21.564586
-1.3668074 -9.4922116 21.753024
-0.94312712 -9.3165274 21.937258
-0.50362109 -9.1455063 22.130997
-0.06956739 -8.9871751 22.316433
0.38392756 -8.8465032 22.472265
0.93994088 -8.7278991 22.568715
1.5239622 -8.6045095 22.629027
2.1403588 -8.4431634 22.674854
2.8058745 -8.2571419 22.708445
3.5286431 -8.0253737 22.688561
4.3115851 -7.7570582 22.573991
5.0673408 -7.5101325 22.433411
5.7965821 -7.2516545 22.25758
6.4944109 -6.9918668 22.037306
7.1841485 -6.7521677 21.793394
7.8425612 -6.5366231 21.534567
8.4951008 -6.2768876 21.275779
9.1840225 -5.8599377 20.983728
9.8864183 -5.2671441 20.59809
10.553579 -4.6710611 20.218033
11.192069 -4.0617945 19.824398
11.776781 -3.5087065 19.449721
12.357317 -2.95843 19.074426
12.953752 -2.4025507 18.686296
13.490722 -1.8891724 18.334454
-3.116964 -11.30772 19.964437
-2.7546451 -11.108636 20.162042
-2.390134 -10.937043 20.361806
-2.0050263 -10.766313 20.553935
-1.6159283 -10.591913 20.740335
-1.1899038 -10.399262 20.929433
-0.75545743 -10.205363 21.121844
-0.29574202 -10.026115 21.303518
0.18227696 -9.8635624 21.460468
0.73604516 -9.7430729 21.566712
1.3303644 -9.6154698 21.659108
1.9482913 -9.4647252 21.75161
2.6302488 -9.3273436 21.797989
3.3423691 -9.161395 21.798103
4.1309407 -8.9101567 21.71756
4.9236822 -8.6196566 21.614723
5.6946979 -8.3507391 21.500209
6.4556456 -8.0432239 21.351265
7.1657325 -7.7274265 21.192477
7.8578342 -7.4144236 21.003242
8.5193988 -7.1181011 20.795957
9.21726 -6.7103151 20.565051
9.9518682 -6.111708 20.20332
10.682821 -5.4555101 19.801243
11.3644 -4.7948812 19.409384
12.004221 -4.1715361 19.021496
12.634841 -3.5615032 18.638505
13.248377 -2.9787092 18.254487
13.842726 -2.4205625 17.870189
14.390103 -1.9031844 17.509579
-3.0662377 -12.182807 19.155359
-2.6860789 -11.989953 19.352421
-2.2906982 -11.823599 19.539635
-1.8883368 -11.635024 19.743118
-1.4551579 -11.435704 19.938267
-1.0200757 -11.237198 20.117102
-0.54765316 -11.059588 20.276132
-0.043022491 -10.89334 20.426097
0.53699874 -10.754554 20.547651
1.1122261 -10.624481 20.653489
1.7087884 -10.495685 20.746367
2.3943365 -10.352215 20.809133
3.1045155 -10.203858 20.857584
3.9040855 -9.9870188 20.821653
4.7125391 -9.7396072 20.752101
5.4963331 -9.4579221 20.672678
6.2461374 -9.1344076 20.593103
6.9941504 -8.7851546 20.477229
7.7175183 -8.4316055 20.36551
8.4353689 -8.0591611 20.236542
9.1456129 -7.663474 20.052175
9.9017879 -7.0436691 19.778381
10.688451 -6.3411801 19.433158
11.433157 -5.6289881 19.031758
12.131318 -4.9560416 18.633027
12.78118 -4.3040221 18.239304
13.427716 -3.6887112 17.846564
14.066564 -3.0719812 17.455463
14.692791 -2.4724203 17.069478
15.17387 -1.9100723 16.774301
-3.0474554 -12.991863 18.335756
-2.6154927 -12.823901 18.533293
-2.1851401 -12.646368 18.737324
-1.7410708 -12.476145 18.921834
-1.2630997 -12.281699 19.087275
-0.79451635 -12.090849 19.244192
-0.27094585 -11.935421 19.384553
0.28747005 -11.786425 19.514762
0.88341033 -11.650624 19.627507
1.4893671 -11.510887 19.737189
2.1341732 -11.369051 19.822868
2.8309775 -11.217535 19.887082
3.5850736 -10.999431 19.905663
4.3870273 -10.735253 19.866267
5.1883774 -10.471247 19.820812
5.9836002 -10.203154 19.776469
6.7546438 -9.8714263 19.702884
7.5073592 -9.5182152 19.610765
8.2352725 -9.115827 19.525171
8.9985954 -8.680291 19.414099
9.7645263 -8.1637213 19.234114
10.595863 -7.35171 18.943281
11.402129 -6.5535361 18.618028
12.159539 -5.8199461 18.250576
12.866723 -5.1358526 17.87131
13.521122 -4.4735596 17.480738
14.159823 -3.8404135 17.090677
14.787926 -3.211002 16.70917
15.311851 -2.5697778 16.388148
15.735079 -1.9560683 16.15054
-3.001011 -13.796196 17.526747
-2.536865 -13.604058 17.727873
-2.0626769 -13.429479 17.894998
-1.574463 -13.262636 18.042943
-1.0733772 -13.088435 18.199263
-0.52486354 -12.933702 18.357352
0.025222441 -12.78849 18.508908
0.6168031 -12.644215 18.633244
1.2157007 -12.489216 18.761811
1.8591991 -12.332075 18.874872
2.5231281 -12.169484 18.959693
3.2490404 -11.974912 18.999668
4.0420579 -11.720569 18.978308
4.8402117 -11.453601 18.938776
5.6395678 -11.18478 18.896004
6.435031 -10.90234 18.84799
7.1951684 -10.579007 18.808432
7.980031 -10.172453 18.756034
8.7596091 -9.7592581 18.683441
9.5407105 -9.2677843 18.563222
10.372521 -8.5826396 18.352454
11.259447 -7.6670322 18.076973
12.087759 -6.8028165 17.79254
12.862629 -6.0213453 17.460566
13.579451 -5.3254398 17.086096
14.229535 -4.6518097 16.718978
14.832757 -3.9692528 16.366999
15.360855 -3.3324175 16.036778
15.808392 -2.6835409 15.792511
16.238137 -2.0613831 15.551041
-2.9173833 -14.595233 16.682683
-2.4314221 -14.396474 16.867376
-1.9125098 -14.196957 17.034751
-1.3964617 -14.017069 17.18948
-0.87343711 -13.846181 17.345788
-0.31819567 -13.684494 17.512526
0.28393358 -13.539727 17.662018
0.88669989 -13.402289 17.794731
1.5163639 -13.265226 17.916638
2.2180718 -13.119793 18.021113
2.9236244 -12.938123 18.081131
3.6931913 -12.705569 18.08547
4.490492 -12.438799 18.048563
5.287649 -12.16909 18.00436
6.0816718 -11.89022 17.974922
6.8618504 -11.561706 17.953931
7.6468929 -11.203074 17.90646
8.4527931 -10.819855 17.851285
[...]
POINT_DATA 900
VECTORS normals float
-0.3871601 -0.36492652 0.84672055
-0.37989233 -0.35682984 0.85343675
-0.37367759 -0.34994601 0.85901272
-0.37758592 -0.34229082 0.86038705
-0.36291959 -0.33928312 0.86785732
-0.35986742 -0.3320457 0.87191805
-0.34496691 -0.33762005 0.87579137
-0.32815173 -0.33586406 0.88289964
-0.31283724 -0.33627048 0.88828769
-0.29686823 -0.34253396 0.89136959
-0.26685055 -0.34152685 0.90119376
-0.23140895 -0.34727098 0.90876442
-0.18949139 -0.34969435 0.91750034
-0.12863057 -0.35507588 0.92594562
-0.067943094 -0.34544575 0.93597595
0.020763481 -0.34239433 0.93932689
0.065699212 -0.32728738 0.9426381
0.1542141 -0.33201769 0.93058168
0.21867852 -0.31801223 0.92252259
0.28594633 -0.31398291 0.90534492
0.35410312 -0.30596956 0.88373843
0.40804759 -0.29340694 0.8645285
0.45416058 -0.28884051 0.84279851
0.49827009 -0.27613117 0.82187499
0.51933348 -0.25617065 0.81527255
0.54539236 -0.24054215 0.80292381
0.57542665 -0.20515685 0.79170375
0.59406618 -0.1790432 0.78423779
0.6164767 -0.14809587 0.77332017
0.63477462 -0.12585097 0.76237964
-0.32536649 -0.43827939 0.83788294
-0.32192524 -0.42603272 0.84549409
-0.31507164 -0.42228984 0.84994185
-0.31439171 -0.42176926 0.85045197
-0.30593587 -0.41177837 0.85839491
-0.29862523 -0.41111374 0.86128303
-0.28474097 -0.41052857 0.86624989
-0.27069321 -0.40822839 0.87182267
-0.25240218 -0.40741267 0.87767195
-0.23193206 -0.40659948 0.88367663
-0.20397915 -0.41254697 0.88780488
-0.16626138 -0.40861047 0.89743782
-0.11241929 -0.41032342 0.90498431
-0.048834085 -0.41296542 0.90943653
0.011257485 -0.41389538 0.91025485
0.08739468 -0.40437903 0.91040638
0.15151161 -0.39711883 0.9051745
0.246657 -0.38677619 0.88857442
0.31370808 -0.38246267 0.86908547
0.36889413 -0.3693562 0.85293207
0.41617237 -0.35233394 0.83824898
0.4481844 -0.3402789 0.82664443
0.48881602 -0.31600252 0.81314286
0.51692837 -0.29546681 0.80342046
0.54279466 -0.27134492 0.79482444
0.57468464 -0.23333392 0.78440605
0.59842646 -0.20632907 0.77415379
0.62060274 -0.17373343 0.76463647
0.63630673 -0.14678613 0.75734244
0.64719449 -0.12385026 0.75219705
-0.26807589 -0.51270412 0.81564073
-0.25973906 -0.51486636 0.81697507
-0.25752511 -0.51265116 0.8190663
-0.25105469 -0.50635689 0.82496924
-0.23610608 -0.49719177 0.83489776
-0.22512351 -0.49924825 0.83670221
-0.2142821 -0.50109695 0.83844203
-0.21123944 -0.4866723 0.84766029
-0.18613267 -0.48945974 0.85192946
-0.1644775 -0.48933931 0.85644276
-0.1260702 -0.49661119 0.85876867
-0.083192712 -0.4968332 0.86384938
-0.024730907 -0.49611521 0.86790442
0.03577917 -0.4951964 0.868044
0.097923827 -0.48420459 0.86945779
0.1728778 -0.47364602 0.86358133
0.24426698 -0.45497343 0.85634854
0.31596433 -0.43716305 0.84205404
0.370744 -0.41550789 0.83060344
0.41401508 -0.39381585 0.82067082
0.45314245 -0.36957238 0.81122018
0.49103933 -0.34188663 0.80124522
0.51509571 -0.32472419 0.79324058
0.53794104 -0.29629259 0.78919588
0.56920876 -0.26723758 0.77755094
0.5927603 -0.23627451 0.76994128
0.62042852 -0.19559179 0.7594816
0.63778856 -0.17098231 0.75099321
0.64880218 -0.14614187 0.746792
0.65679293 -0.12446073 0.74372883
-0.21607115 -0.56392191 0.79706044
-0.21413346 -0.56476438 0.79698686
-0.20659274 -0.56695462 0.79742203
-0.19934848 -0.56530908 0.80042853
-0.18321096 -0.56986274 0.80105568
-0.17956604 -0.56752261 0.8035385
-0.16285752 -0.57433241 0.80225913
-0.13048616 -0.57612736 0.80687708
-0.1077383 -0.57809775 0.8088235
-0.085513658 -0.57478313 0.81382539
-0.048781302 -0.57475412 0.81687091
-0.013502357 -0.56537756 0.82472171
0.052493557 -0.56221878 0.82532083
0.099715882 -0.54571295 0.8320181
0.18196706 -0.53538913 0.82477055
0.24779215 -0.51690354 0.81939599
0.30879273 -0.49543226 0.81190758
0.36456799 -0.46355902 0.807591
0.40324575 -0.43998788 0.80237368
0.43769513 -0.42067643 0.794641
0.46897999 -0.39800506 0.78844768
0.50009643 -0.36258288 0.78640779
0.52625441 -0.33468743 0.78169087
0.56337493 -0.29393318 0.77214763
0.58759694 -0.27036586 0.76264811
0.61780711 -0.22086821 0.75467318
0.64037504 -0.1849953 0.74545057
0.64960361 -0.16497955 0.74215692
0.65891591 -0.14422743 0.7382603
0.66445095 -0.12813633 0.73626491
-0.16054615 -0.59517143 0.78739818
-0.16292464 -0.60367111 0.78040807
-0.14838202 -0.61382653 0.77537073
-0.14420005 -0.61480695 0.77538298
-0.13710435 -0.60730981 0.78254533
-0.12216171 -0.6137399 0.77999991
-0.099115424 -0.62586852 0.77360502
-0.084606068 -0.62000457 0.78002317
-0.054185297 -0.62825655 0.77611704
-0.033257372 -0.62831331 0.77724921
-0.0094786156 -0.62487049 0.78067089
0.033158793 -0.62197936 0.78233124
0.087715958 -0.61475948 0.78382185
0.15206645 -0.59487014 0.78930685
0.23314413 -0.56759712 0.7896058
0.29399261 -0.54292814 0.78663676
0.34969265 -0.51565924 0.78218322
0.38754568 -0.48549074 0.78364985
0.4250311 -0.46048843 0.7792939
0.44992765 -0.44139351 0.77636131
0.47802603 -0.41572889 0.77373161
0.51316979 -0.38003962 0.76956264
0.55449656 -0.34087189 0.75917055
0.58869822 -0.29477632 0.7526894
0.62062909 -0.25528886 0.7413819
0.64150895 -0.21188114 0.7372738
0.65646032 -0.18324875 0.73176482
0.65980556 -0.16313652 0.73351421
0.66637537 -0.14420193 0.73153925
0.67199502 -0.13118532 0.72884367
-0.10753617 -0.65062682 0.75174511
-0.098067912 -0.65218082 0.75169333
-0.090593042 -0.65873579 0.7469003
-0.087441555 -0.65971477 0.74641168
-0.074396671 -0.66014168 0.74744772
-0.061564312 -0.6550041 0.75311318
-0.044947321 -0.65992016 0.74999008
-0.036015063 -0.66143665 0.74913582
-0.011928266 -0.66397972 0.74765543
8.7014388e-05 -0.6640179 0.74771667
0.030019112 -0.66518394 0.74607585
0.060915065 -0.66149503 0.74747153
0.12138527 -0.64702673 0.752743
0.19055826 -0.62707463 0.7552913
0.25307782 -0.59585513 0.7621734
0.31006975 -0.56712207 0.76303952
0.36046699 -0.53832988 0.76175094
0.4002964 -0.50700424 0.76335411
0.43088389 -0.48438436 0.76138746
0.45641651 -0.46435946 0.75898239
0.48953251 -0.43779685 0.7541166
0.52950715 -0.39908984 0.74856495
0.57860911 -0.3480826 0.73759746
0.61643044 -0.2889897 0.73246056
0.64047156 -0.2536103 0.72489861
0.65183194 -0.21329441 0.72775038
0.66424837 -0.1851745 0.72421302
0.66608834 -0.16672385 0.72700033
0.67414705 -0.14367442 0.72448839
0.68016511 -0.12850058 0.72170841
-0.060705951 -0.68637247 0.7247121
-0.057746999 -0.68792466 0.72348113
-0.040556639 -0.69159322 0.72114768
-0.035944065 -0.69568877 0.71744349
-0.025436996 -0.70053912 0.7131605
-0.017711397 -0.69757552 0.71629233
-0.00417811 -0.69612909 0.71790447
0.0042592381 -0.69635703 0.7176829
0.015265636 -0.69634945 0.71754053
0.032397761 -0.69674517 0.71658674
0.05602757 -0.69183497 0.71987866
0.092100217 -0.68767358 0.72015456
0.1549372 -0.67492622 0.72143542
0.21034633 -0.65878818 0.72232441
0.26693221 -0.63126491 0.72818391
0.31929145 -0.60323557 0.73086237
0.35595591 -0.57366957 0.73769819
0.39950961 -0.54338714 0.73832411
0.43085713 -0.51971244 0.73774055
0.47264899 -0.48488098 0.73586233
0.50924333 -0.44862277 0.73444458
0.55383994 -0.41316496 0.72288038
0.60055422 -0.36161639 0.71313969
0.6343187 -0.30013208 0.71243282
0.65100454 -0.25343318 0.71551709
0.66124731 -0.22046654 0.7170401
0.67228817 -0.18924569 0.71569176
0.6784238 -0.17402622 0.71376188
0.68340813 -0.15624859 0.7131197
0.69445187 -0.13281483 0.70717524
-0.037963412 -0.70236187 0.71080699
-0.035150756 -0.70192628 0.7113817
-0.017336803 -0.70183292 0.71213059
-0.011028222 -0.70696128 0.70716627
-0.0061979906 -0.71253334 0.70161087
0.002216469 -0.71038927 0.70380549
0.010926648 -0.71007553 0.70404073
0.025326855 -0.71074261 0.70299608
0.035454632 -0.70968393 0.70362753
0.056377396 -0.71073708 0.70119497
0.085011904 -0.70793762 0.70114
0.12986924 -0.70076767 0.70146892
0.17621767 -0.69139286 0.70065915
0.22423391 -0.67510035 0.70282194
0.26993997 -0.6535583 0.70710252
0.31595067 -0.63087808 0.70863815
0.3558577 -0.60036866 0.71618627
0.39953252 -0.56984904 0.71808484
0.44095505 -0.54022461 0.71673986
0.48634243 -0.51434366 0.70634385
0.52835327 -0.46791018 0.70845104
0.5750359 -0.42685538 0.6979457
0.61910062 -0.3668463 0.69436173
0.64219514 -0.31029144 0.70093125
0.65742936 -0.27233292 0.70258197
0.66897598 -0.22638908 0.7079683
0.68198485 -0.20031929 0.70339808
0.69058263 -0.18710293 0.69863304
0.70147028 -0.1623292 0.69396591
0.70625687 -0.14088127 0.69379658
-0.022449067 -0.71363115 0.70016185
-0.0128286 -0.71545056 0.69854558
-0.0061823084 -0.71416379 0.69995132
-0.0010135323 -0.71536945 0.69874567
0.0079937602 -0.71509841 0.69897808
0.012100218 -0.71416165 0.69987622
0.021079985 -0.7150641 0.69874098
0.037172791 -0.71548062 0.69764294
0.057593128 -0.71397955 0.69779383
0.083049724 -0.71324299 0.6959793
0.11246782 -0.70940927 0.69576539
0.14963027 -0.70738907 0.69080495
0.19188243 -0.70237693 0.68545444
0.23221698 -0.69011667 0.68542998
0.27619757 -0.67258938 0.68654091
0.32170265 -0.64950924 0.68894496
0.36058688 -0.61684202 0.69963063
0.40616121 -0.59440893 0.69405411
0.45081186 -0.56151867 0.69387711
0.50407104 -0.52456574 0.68610726
0.54386344 -0.49509853 0.67756181
0.59583762 -0.43559278 0.67471213
0.6281755 -0.38601589 0.67556441
0.6446304 -0.33747811 0.68597388
0.66355893 -0.28655044 0.69107047
0.67860783 -0.2406405 0.69396222
0.69346309 -0.22086099 0.68580564
0.70441199 -0.20000588 0.68102966
0.71406952 -0.17492186 0.6778695
0.71986384 -0.14655474 0.67846721
-0.0036060636 -0.71939242 0.69459452
0.0050785344 -0.72425307 0.68951555
0.0080527904 -0.72502268 0.68867792
0.014575531 -0.72579324 0.68775848
0.012049863 -0.72609745 0.68748622
0.020166007 -0.72698618 0.68635591
0.033759409 -0.72665829 0.68616909
0.04312512 -0.72237959 0.69015067
0.06797801 -0.72041301 0.69020583
0.1038295 -0.71640395 0.68991653
0.13986551 -0.71068254 0.68946933
0.17307234 -0.70648957 0.68623498
0.21822138 -0.70126402 0.67868123
0.24893903 -0.69562678 0.67389372
0.28017639 -0.68869808 0.66872726
0.31853227 -0.67063545 0.66991439
0.36796182 -0.6446466 0.67010063
0.41864964 -0.61022641 0.67257431
0.47729526 -0.57650906 0.66319419
0.52485289 -0.54023157 0.65778362
0.56897661 -0.51118749 0.64416843
0.6093604 -0.44990104 0.65289275
0.62822782 -0.40515412 0.66421378
0.65156181 -0.34734351 0.67440321
0.67123348 -0.30233103 0.67678768
0.6990355 -0.24864711 0.67046549
0.70925184 -0.22984173 0.66643425
0.71849091 -0.2160816 0.66111992
0.72448993 -0.18899877 0.66286786
0.73015653 -0.16003185 0.66427498
0.015331027 -0.725662 0.68788053
0.016369294 -0.72745757 0.68595738
0.020756244 -0.72784598 0.68542645
0.020736327 -0.7281452 0.68510917
0.019560921 -0.73188919 0.68114286
0.024661409 -0.73266636 0.68014103
0.035557338 -0.73291879 0.67938628
0.057610382 -0.7332735 0.67748876
0.091654331 -0.73023906 0.6770158
0.12582928 -0.72346279 0.67879936
0.16137944 -0.71833833 0.67671761
0.20009576 -0.71396757 0.67097839
0.23889575 -0.70536428 0.6673755
0.26762297 -0.70262841 0.6593112
0.29749536 -0.69528534 0.65427426
0.33725793 -0.67698554 0.65417709
0.39115647 -0.66005494 0.64134553
0.43517388 -0.6333295 0.6399355
0.49743247 -0.60443996 0.62226463
0.54462011 -0.56490527 0.61989594
0.5945582 -0.52455815 0.60937615
0.61580279 -0.48506067 0.62088893
0.63845275 -0.42849814 0.63934923
0.6647731 -0.37919048 0.64365465
0.69058866 -0.32470349 0.64626229
0.71330498 -0.26975078 0.64686206
0.72733618 -0.25217881 0.63826948
0.73272579 -0.23252768 0.63956532
0.74074636 -0.20442409 0.63992626
0.75443071 -0.16988529 0.63401364
0.026713796 -0.72910272 0.68388274
0.029049458 -0.73098493 0.68177501
0.028881969 -0.73091514 0.68185695
0.02841349 -0.73502065 0.67744913
0.029678964 -0.73669479 0.67557379
0.03514079 -0.73742523 0.67451401
0.049595633 -0.73759099 0.67342394
0.069655008 -0.74180243 0.66699126
0.10646778 -0.73909396 0.66513512
0.14345496 -0.73505546 0.66265689
0.18288454 -0.72708748 0.6617379
0.21788771 -0.72358195 0.65494588
0.25494773 -0.71767195 0.64803444
0.28040122 -0.71006589 0.64589595
0.31148666 -0.70225917 0.64016257
0.35417083 -0.68533221 0.636304
0.41259142 -0.66843216 0.61884309
0.47206593 -0.64414876 0.60185225
0.52626256 -0.61371963 0.5885541
0.56942386 -0.58193905 0.58060608
0.60778376 -0.53991483 0.5823151
0.62835428 -0.5052093 0.59155259
0.65909372 -0.45951274 0.59535158
0.69138303 -0.40386882 0.5990655
0.71846529 -0.33991468 0.60684894
0.74111595 -0.30046156 0.60039154
0.74569092 -0.27488795 0.60694454
0.75240488 -0.25874285 0.60575492
0.76557412 -0.2231108 0.60342178
0.77648483 -0.19164571 0.60028596
0.031864767 -0.73026335 0.68242222
0.036617393 -0.73468412 0.6774204
0.037039661 -0.73488853 0.67717569
0.037585484 -0.73850733 0.67319704
0.042751939 -0.74193467 0.66910778
0.052469883 -0.74386084 0.66627169
0.068945306 -0.74714134 0.66107969
0.087833745 -0.74944367 0.65621598
0.12071014 -0.74844308 0.65212117
0.15728857 -0.74484799 0.64843024
0.2083692 -0.73745942 0.64244523
0.24329767 -0.73262189 0.63566611
0.26939069 -0.7266172 0.63202539
0.30296793 -0.71925273 0.62520871
0.34270671 -0.70346276 0.62264939
0.39136666 -0.6909385 0.60781257
0.44312952 -0.66632784 0.59970278
0.5060518 -0.64118623 0.57688109
0.55141997 -0.6165047 0.56201242
0.58684083 -0.58809575 0.55656197
0.61704181 -0.55684056 0.55604676
0.64542388 -0.52893756 0.55104725
0.67842967 -0.48575256 0.55116027
0.71235117 -0.4430261 0.54431947
0.74561513 -0.37863686 0.54835409
0.75954047 -0.35059667 0.54788708
0.77192032 -0.30693155 0.55671541
0.77905478 -0.27823157 0.56183703
0.79268319 -0.24801176 0.55690531
0.80348853 -0.22258335 0.55214386
0.038653279 -0.7359642 0.67591613
0.048503843 -0.73722437 0.67390474
0.047971229 -0.73883818 0.67217327
0.050933013 -0.74293345 0.66742469
0.057889466 -0.74932378 0.65966861
0.069935111 -0.7518016 0.65567022
0.086678323 -0.75528015 0.64964511
0.11183337 -0.75342722 0.64795117
0.14817834 -0.75348649 0.64054765
0.18364206 -0.75200283 0.63306187
0.22412722 -0.74416197 0.62927733
0.25890728 -0.73765622 0.6235626
0.28816282 -0.73190274 0.61747921
0.3291289 -0.72341606 0.60691299
0.36913606 -0.70906995 0.60079812
0.41930116 -0.69171575 0.58797606
0.48349885 -0.66597154 0.56807637
0.53674989 -0.6415087 0.5480567
0.57068822 -0.62028889 0.53810467
0.60470487 -0.6015449 0.5219921
0.63280466 -0.57611658 0.51734703
0.66770781 -0.54666654 0.50529394
0.69501046 -0.51472396 0.50201564
0.72562751 -0.47061551 0.50198183
0.75364429 -0.42243723 0.50355443
0.77493396 -0.37495948 0.50880522
0.78818604 -0.33793636 0.51435569
0.79797625 -0.30866504 0.51764834
0.81170558 -0.2788455 0.51320488
0.82288262 -0.23766346 0.51612041
0.049657708 -0.73611971 0.67502732
0.05348159 -0.74033041 0.67011238
0.060454553 -0.74553534 0.66371854
0.073583992 -0.74614937 0.66169971
0.078394808 -0.75344208 0.65282408
0.090887476 -0.7556586 0.64862897
0.10888679 -0.75840713 0.64262142
0.13717785 -0.75900054 0.63647499
0.17204868 -0.75720517 0.63011077
0.20794204 -0.75618128 0.62044337
0.24748841 -0.74792923 0.61591505
0.28024226 -0.74250401 0.60840124
0.3163732 -0.73489457 0.59986497
0.35922756 -0.72309833 0.58998675
0.4107806 -0.70965809 0.57240256
0.46529619 -0.69069156 0.5535744
0.52404159 -0.66724553 0.52930503
0.56392775 -0.64360565 0.51745266
0.59506268 -0.62766953 0.50192765
0.63308952 -0.60621892 0.4813484
0.65627652 -0.58715439 0.47386798
0.68857746 -0.56149843 0.45889061
0.71508077 -0.52961659 0.45625186
0.73411104 -0.49609326 0.46365122
0.76010922 -0.4509148 0.467878
0.78502928 -0.39578261 0.47653454
0.80198301 -0.36197281 0.47518306
0.80933032 -0.33282421 0.48395503
0.8223988 -0.29449722 0.4867562
0.83605353 -0.25647862 0.48500847
0.060099086 -0.73861926 0.67143852
0.067677609 -0.74260722 0.66629893
0.07072899 -0.74735998 0.66064398
0.084396179 -0.74854343 0.65769295
0.095023552 -0.75568795 0.64800174
0.10974857 -0.75783758 0.64314653
0.12987662 -0.76115537 0.63543258
0.15620667 -0.76275562 0.62753753
0.18966087 -0.76252052 0.61853958
0.23069919 -0.75897217 0.60888351
0.26743204 -0.7542867 0.59960961
0.300558 -0.74705487 0.59293669
0.33820817 -0.73953134 0.5819868
0.39419461 -0.73178687 0.55596635
0.46129925 -0.71238093 0.52888224
0.50679212 -0.69479864 0.51031029
0.55481968 -0.67603856 0.48491957
0.58962589 -0.65834905 0.46788657
0.62359203 -0.64077441 0.44781819
0.65164535 -0.62046375 0.43632909
0.67716036 -0.60164369 0.42364929
0.70223225 -0.57301222 0.42252439
0.72374185 -0.54668587 0.42110841
0.74206311 -0.51504747 0.42903199
0.76579763 -0.47402508 0.43457359
0.79143885 -0.42080954 0.44333269
0.80888447 -0.37804809 0.45031717
0.81834705 -0.35099159 0.4550967
0.8312307 -0.31446624 0.45843922
0.84641111 -0.27025765 0.45885622
0.074270668 -0.74058215 0.66784875
0.077653353 -0.74421352 0.66341253
0.082330489 -0.74843048 0.6580832
0.09453447 -0.74965193 0.65504597
0.10823292 -0.75540172 0.64626147
0.12530777 -0.7573427 0.6408822
0.14762134 -0.76151292 0.6311149
0.17682851 -0.76247904 0.62238042
0.21720094 -0.76259189 0.60932533
0.25346969 -0.76173778 0.59624548
0.29393843 -0.75791273 0.58238174
0.33959628 -0.75264675 0.56408974
0.38053444 -0.74445921 0.548611
0.44655149 -0.7307994 0.51625963
0.50598444 -0.71762862 0.47852785
0.55805354 -0.6958387 0.45208931
0.59239919 -0.67821577 0.43484086
0.62593535 -0.65865164 0.41759185
0.64638467 -0.6459344 0.40614727
0.66703299 -0.63523391 0.38928764
0.69152445 -0.60845975 0.38932077
0.71477479 -0.58365913 0.38527785
0.73165077 -0.5603291 0.38822476
0.74941614 -0.53047905 0.39619114
0.77157574 -0.48911567 0.40673915
0.79479794 -0.44484481 0.41280665
0.81582309 -0.40466241 0.41313559
0.82864764 -0.36609853 0.42345596
0.84324444 -0.3255946 0.42769962
0.85981442 -0.28458641 0.42394545
0.082537035 -0.74525743 0.6616487
0.086166018 -0.74537572 0.66105253
0.093986737 -0.74838174 0.65657541
0.10858926 -0.75244621 0.64964073
0.12390752 -0.75493002 0.64399347
0.14610474 -0.75999308 0.63329608
0.17531078 -0.76514734 0.61952859
0.20781431 -0.7660581 0.60825012
0.24659635 -0.76745985 0.59177329
0.28315102 -0.76665238 0.57625483
0.32250195 -0.76406721 0.55874304
0.37742185 -0.75954756 0.5297549
0.43980758 -0.74526164 0.50115306
0.5071723 -0.73093024 0.45663688
0.55420806 -0.7164883 0.42367198
0.58566729 -0.70682691 0.3967235
0.61838243 -0.68795938 0.37988823
0.6477053 -0.66917205 0.36426172
0.66056474 -0.66493259 0.34859558
0.68395056 -0.64400271 0.34274208
0.70532943 -0.62207124 0.33990847
0.72724917 -0.59770863 0.33742115
0.74417285 -0.57566931 0.33883863
0.75874894 -0.55016245 0.34874248
0.77472819 -0.51817467 0.36234133
0.80297334 -0.46760114 0.36957135
0.82773822 -0.41903849 0.37317045
0.84146781 -0.3837686 0.38033352
0.85285428 -0.35184404 0.3858048
0.86743363 -0.30860771 0.39028218
0.087572644 -0.74501956 0.66126915
0.092387136 -0.74660516 0.65882118
0.1029141 -0.74942533 0.65404156
0.12403427 -0.75306437 0.64614979
0.14698633 -0.75975769 0.63337451
0.16874592 -0.76448604 0.62216228
0.20111926 -0.76957284 0.60605998
0.23429773 -0.77161087 0.59137233
0.26694746 -0.77351772 0.57481249
0.31436472 -0.7807542 0.53999787
0.36783907 -0.77879667 0.50810449
0.43751881 -0.7697957 0.46474926
0.50193478 -0.75348678 0.42464002
0.55453812 -0.73949439 0.38162222
0.58714439 -0.72851347 0.3528875
0.61191945 -0.72158234 0.32384179
0.63842396 -0.7042194 0.31062819
0.66194396 -0.6911666 0.29003264
0.6797499 -0.67463543 0.28776226
0.69993746 -0.65562114 0.2832816
0.71710002 -0.63946167 0.27722976
0.73861135 -0.60755313 0.29211721
0.74911825 -0.59446196 0.29229577
0.76099736 -0.5731761 0.30389501
0.78199471 -0.53805279 0.31461639
0.81089686 -0.48515216 0.32722112
0.83368585 -0.43786441 0.33651546
0.84928352 -0.4012611 0.34308458
0.86223792 -0.36900692 0.34695773
0.87403402 -0.32157119 0.36422041
0.093972004 -0.74856777 0.65636542
0.098054165 -0.75104516 0.65292921
0.11562686 -0.75421837 0.64636296
0.1440982 -0.75998947 0.63375998
0.16894989 -0.7656995 0.62061278
0.19145037 -0.77211274 0.60596095
0.22125671 -0.7785308 0.58731189
0.26220617 -0.783808 0.56293245
0.30113066 -0.7902182 0.53373731
0.34779265 -0.79552129 0.4961715
0.41309452 -0.79522341 0.443816
0.48448051 -0.77765579 0.40066208
0.55490588 -0.75886398 0.34088844
0.59238088 -0.74528534 0.30599781
0.6105211 -0.7435467 0.27276784
0.62503274 -0.73415762 0.26522945