# vtk DataFile Version 2.0
Grain example
ASCII
DATASET UNSTRUCTURED_GRID
POINTS 900 float
-6.8107901 2.7083988 -21.252185
-6.3158106 2.6984302 -21.840844
-5.8368573 2.7062195 -22.387942
-5.3662462 2.6999703 -22.882776
-4.90561 2.6894291 -23.351391
-4.4735052 2.6647343 -23.775067
-4.080807 2.6499252 -24.056001
-3.6906427 2.6523333 -24.286623
-3.2994909 2.6431489 -24.509891
-2.8888602 2.6502114 -24.724342
-2.4663001 2.6631742 -24.932008
-2.0131291 2.6710433 -25.070303
-1.5040658 2.663578 -25.169722
-1.0102209 2.658974 -25.241987
-0.52891876 2.6436303 -25.330338
-0.042801475 2.6431447 -25.406645
0.38907371 2.6221278 -25.409506
0.82951492 2.6104052 -25.366886
1.2659987 2.6037465 -25.266724
1.6888834 2.5863803 -25.136212
2.1476591 2.5624424 -24.956707
2.6462527 2.553634 -24.702304
3.1509963 2.5642035 -24.366226
3.6380595 2.5884389 -24.011305
4.1816842 2.6247992 -23.601882
4.7464469 2.6559851 -23.172988
5.3229154 2.7022761 -22.696085
5.9846852 2.7842578 -22.076284
6.6583514 2.8513883 -21.391092
7.3485585 2.9401136 -20.647052
-6.7548952 2.3462812 -21.530025
-6.2591294 2.3075768 -22.129763
-5.7865408 2.2750341 -22.692595
-5.319789 2.2453295 -23.201511
-4.8586212 2.2331225 -23.673629
-4.4406682 2.2048619 -24.05264
-4.0519503 2.1723867 -24.336186
-3.6682843 2.1557424 -24.586441
-3.2802587 2.1385795 -24.808864
-2.8989287 2.1207577 -25.029863
-2.4603695 2.1291916 -25.22235
-1.9786365 2.143782 -25.374321
-1.4769219 2.1431125 -25.457341
-0.98409954 2.147315 -25.527127
-0.51359866 2.138068 -25.583738
-0.027602236 2.128045 -25.602247
0.42772951 2.1115912 -25.575025
0.86103098 2.094808 -25.508856
1.30557 2.0787568 -25.399877
1.7601392 2.0703088 -25.264665
2.259749 2.0451721 -25.073521
2.7491375 2.0435677 -24.801156
3.2493132 2.0761773 -24.442703
3.7598489 2.0979713 -24.056209
4.3250987 2.1415395 -23.63371
4.9032451 2.1833439 -23.173998
5.5352578 2.269676 -22.617728
6.2665825 2.3856734 -21.882553
6.968863 2.5061183 -21.126782
7.6436749 2.6508027 -20.34263
-6.6890001 1.9574722 -21.803346
-6.1782473 1.9150863 -22.416448
-5.7083416 1.8801306 -22.982949
-5.2498922 1.8285314 -23.485746
-4.8007212 1.7720004 -23.979184
-4.4068873 1.7265818 -24.320978
-4.0214737 1.7005929 -24.605694
-3.6364557 1.6727583 -24.863263
-3.2478439 1.648349 -25.100224
-2.8629666 1.6302316 -25.32325
-2.4307721 1.6184303 -25.476505
-1.9444343 1.6271043 -25.565458
-1.4513902 1.6483851 -25.61695
-0.95000684 1.6578397 -25.649231
-0.46427568 1.6255484 -25.696257
-0.0041705872 1.5948975 -25.698987
0.46663168 1.5840673 -25.666965
0.90743031 1.5611838 -25.600572
1.3711753 1.520895 -25.501292
1.8467878 1.5013878 -25.350526
2.3395553 1.5023228 -25.151094
2.8418758 1.5367012 -24.874248
3.3544557 1.5721796 -24.499871
3.8808274 1.5961371 -24.092586
4.4735439 1.6479321 -23.634404
5.0844736 1.7129939 -23.103865
5.7822844 1.8466577 -22.41973
6.5255924 2.0031616 -21.632479
7.2364533 2.1709045 -20.878758
7.9198926 2.3843754 -20.054276
-6.6239025 1.5711624 -22.071412
-6.1075415 1.5220239 -22.70012
-5.6267498 1.4715093 -23.271125
-5.1735662 1.4132248 -23.769655
-4.7471043 1.3583019 -24.204736
-4.3539913 1.3027787 -24.550861
-3.980796 1.240115 -24.857026
-3.6099092 1.2032385 -25.080743
-3.2228224 1.1789771 -25.270852
-2.8188242 1.1596917 -25.44271
-2.3831369 1.1431344 -25.560832
-1.899695 1.1361547 -25.648863
-1.4117123 1.1296322 -25.722528
-0.89758591 1.1132701 -25.74968
-0.40542997 1.0625567 -25.78973
0.032643031 1.0301671 -25.771611
0.49845642 1.0165195 -25.727803
0.96756836 1.0003643 -25.667314
1.4547172 0.96093776 -25.560546
1.9159725 0.94468088 -25.412836
2.406879 0.95144822 -25.201138
2.9267935 0.97629866 -24.919627
3.451726 1.0271717 -24.519901
3.9988672 1.1004244 -24.085057
4.6179987 1.189242 -23.572237
5.2768621 1.2973243 -22.961009
6.0232017 1.4559207 -22.178521
6.7543069 1.6359676 -21.408762
7.4656278 1.8277655 -20.646048
8.170494 2.0877016 -19.792204
-6.5684373 1.1671238 -22.324598
-6.0310261 1.1184885 -22.976194
-5.5427405 1.0661329 -23.553879
-5.0909424 0.99982676 -24.052361
-4.6938166 0.94254948 -24.403579
-4.3084017 0.89569734 -24.683522
-3.9395247 0.84347768 -24.936696
-3.5760641 0.78737018 -25.149394
-3.1889562 0.7174527 -25.353028
-2.7693168 0.67544201 -25.514838
-2.3126337 0.63561091 -25.62617
-1.8363527 0.59890949 -25.708679
-1.3331976 0.57537903 -25.776137
-0.82384628 0.54074749 -25.829736
-0.35384307 0.49155814 -25.850105
0.079330804 0.46116424 -25.826054
0.54885798 0.43404903 -25.772047
1.0314407 0.41394365 -25.701864
1.5192051 0.40156426 -25.587921
1.97678 0.39645165 -25.439694
2.4781594 0.40595597 -25.20389
3.0007631 0.44633646 -24.9158
3.526644 0.51278333 -24.508702
4.1184893 0.60517059 -24.023673
4.759411 0.72154576 -23.450033
5.4802723 0.88190599 -22.737921
6.2297749 1.0839061 -21.970617
6.9668509 1.2800206 -21.194554
7.6707395 1.4989654 -20.413535
8.3806571 1.7654897 -19.556405
-6.5286159 0.74023947 -22.54758
-5.9755978 0.69988795 -23.219812
-5.4714028 0.65023555 -23.783327
-5.0538729 0.59317177 -24.134772
-4.6659638 0.53696049 -24.418883
-4.2847828 0.47864678 -24.689089
-3.9022377 0.41451524 -24.956015
-3.516901 0.34241639 -25.193858
-3.114364 0.25584847 -25.375369
-2.706103 0.18303375 -25.524418
-2.2287785 0.11717295 -25.649571
-1.7470881 0.053479922 -25.741596
-1.2474072 0.022291186 -25.799781
-0.74352116 -0.0079690584 -25.850188
-0.2963188 -0.057880203 -25.878015
0.13461629 -0.099319602 -25.836562
0.60030816 -0.12871375 -25.777833
1.0773682 -0.14020989 -25.696074
1.5668849 -0.13682859 -25.574717
2.0492173 -0.14493307 -25.404186
2.5388061 -0.1286277 -25.173132
3.0518653 -0.071481419 -24.878705
3.6103853 0.011711707 -24.451849
4.2362106 0.12360586 -23.903878
4.8860546 0.25453321 -23.2975
5.6431731 0.4666722 -22.528605
6.3906017 0.69062079 -21.763091
7.137055 0.93153414 -20.994335
7.8491326 1.1704172 -20.200279
8.5708956 1.442328 -19.329685
-6.4880614 0.30796878 -22.750864
-5.9561597 0.26733633 -23.292546
-5.4384605 0.22406864 -23.795364
-5.0362636 0.16791028 -24.100497
-4.638782 0.10102755 -24.386589
-4.2488935 0.036297804 -24.665341
-3.8591858 -0.030180406 -24.9245
-3.4498813 -0.10241379 -25.164707
-3.0435588 -0.17611471 -25.352998
-2.6042659 -0.27273549 -25.485081
-2.1320282 -0.38060963 -25.599179
-1.6521405 -0.45913309 -25.70442
-1.166862 -0.52208717 -25.781135
-0.66292841 -0.55462045 -25.82839
-0.23089653 -0.59950384 -25.847777
0.20152464 -0.65093606 -25.818991
0.65115965 -0.69404083 -25.757808
1.1163895 -0.69087834 -25.634654
1.594134 -0.68306985 -25.499769
2.0936103 -0.66722693 -25.334907
2.5794393 -0.63450973 -25.115882
3.1057055 -0.57314444 -24.787878
3.6952678 -0.48597417 -24.350497
4.3357968 -0.35523106 -23.771318
5.0198424 -0.19312976 -23.094382
5.7808531 0.043134045 -22.317753
6.521396 0.29560654 -21.562068
7.2762877 0.54369382 -20.794077
8.0006797 0.81392857 -19.992942
8.7427822 1.1136829 -19.125457
-6.4860807 -0.12010687 -22.73875
-5.9570908 -0.16706577 -23.245789
-5.4555757 -0.22221136 -23.68123
-5.0254521 -0.27545798 -24.030271
-4.6226046 -0.33596842 -24.321286
-4.2292969 -0.40213791 -24.588959
-3.8174593 -0.47535359 -24.847448
-3.4091056 -0.54074187 -25.058448
-2.9763084 -0.61933808 -25.236547
-2.5040187 -0.72969696 -25.386196
-2.0343434 -0.845772 -25.515432
-1.5578848 -0.95643367 -25.606122
-1.0921178 -1.0266466 -25.681561
-0.60227066 -1.0822768 -25.745685
-0.16411535 -1.1407392 -25.756075
0.27308087 -1.1887798 -25.730194
0.70867151 -1.2257465 -25.651186
1.1467892 -1.2288285 -25.536974
1.6140963 -1.1972084 -25.396798
2.1009399 -1.1684488 -25.231936
2.6235645 -1.1335517 -25.008273
3.1615324 -1.0717553 -24.676525
3.7718329 -0.96764537 -24.221817
4.4335108 -0.81583998 -23.617345
5.1485255 -0.62093661 -22.88829
5.9046633 -0.36438793 -22.119425
6.6462441 -0.11594078 -21.364447
7.3990416 0.14025543 -20.594916
8.1252731 0.42945005 -19.787748
8.8769514 0.74595562 -18.925564
-6.4872517 -0.58465862 -22.659504
-5.9590278 -0.62767468 -23.173764
-5.4908131 -0.68125573 -23.538966
-5.0493976 -0.73974123 -23.87997
-4.6367666 -0.79613466 -24.189815
-4.2204338 -0.85870936 -24.459765
-3.798972 -0.92034699 -24.684014
-3.3705665 -0.99986845 -24.877464
-2.9058966 -1.096407 -25.057999
-2.409108 -1.2077929 -25.219645
-1.9196226 -1.3264304 -25.362001
-1.4608531 -1.4334494 -25.461273
-0.97763029 -1.5258922 -25.534082
-0.52369813 -1.6258606 -25.563876
-0.085764289 -1.687106 -25.572008
0.34892206 -1.7374248 -25.564918
0.75554613 -1.7374548 -25.51609
1.1651178 -1.731666 -25.418698
1.633912 -1.7043161 -25.264582
2.1191984 -1.6768596 -25.094
2.6647708 -1.6311746 -24.873704
3.2093898 -1.5546713 -24.546272
3.8372642 -1.4352975 -24.068601
4.5370523 -1.2780862 -23.419205
5.2688902 -1.0423901 -22.685421
6.0216457 -0.78567702 -21.918681
6.7689432 -0.53311493 -21.16174
7.5240735 -0.27263879 -20.392371
8.2489261 0.021651887 -19.582244
8.9703903 0.35398793 -18.753093
-6.4970311 -1.0624156 -22.52624
-6.0065089 -1.1132597 -22.971691
-5.5306813 -1.1536065 -23.35982
-5.0771364 -1.2068168 -23.695351
-4.6480729 -1.2605998 -24.006735
-4.2114428 -1.3241707 -24.263941
-3.7745746 -1.3954351 -24.467514
-3.3333093 -1.4719723 -24.660311
-2.8296254 -1.5833242 -24.824697
-2.3309062 -1.7038462 -24.974529
-1.835523 -1.8193254 -25.113054
-1.3354259 -1.9225247 -25.229268
-0.84013967 -2.0407796 -25.289006
-0.42616734 -2.1446038 -25.317801
-0.0039247643 -2.2175442 -25.342623
0.3907471 -2.2254824 -25.342816
0.79390977 -2.2171792 -25.306766
1.2031613 -2.2176353 -25.236878
1.6573277 -2.205313 -25.106461
2.1484682 -2.1710818 -24.93255
2.6852429 -2.1102007 -24.716975
3.2367983 -2.0237525 -24.418684
3.9135799 -1.8960903 -23.88331
4.6356441 -1.707053 -23.222297
5.3843186 -1.4572655 -22.486704
6.1443282 -1.2027985 -21.715864
6.8848618 -0.94991325 -20.963189
7.6346911 -0.68326116 -20.183304
8.35251 -0.3864467 -19.38639
9.0365016 -0.034666143 -18.605074
-6.5221157 -1.5316181 -22.300957
-6.0492773 -1.5850099 -22.705953
-5.5807499 -1.6372589 -23.091626
-5.0976958 -1.6963742 -23.450818
-4.6586038 -1.7514386 -23.74584
-4.2054321 -1.8142851 -23.993038
-3.7580891 -1.8843675 -24.213856
[...]
POINT_DATA 900
VECTORS normals float
-0.70206563 0.38349745 -0.60002796
-0.67920912 0.40571987 -0.61160965
-0.6592583 0.42487087 -0.62037347
-0.6361579 0.44386101 -0.63110263
-0.60220754 0.45962009 -0.65275987
-0.56043558 0.46410828 -0.6859413
-0.53033439 0.46494226 -0.70892462
-0.48253544 0.46662938 -0.7412264
-0.43733021 0.46527946 -0.76958256
-0.3779849 0.45414009 -0.80677394
-0.31033405 0.45731637 -0.83339937
-0.26330409 0.43814395 -0.85947707
-0.19606359 0.42015823 -0.886017
-0.13141795 0.40777803 -0.90357424
-0.05456868 0.3808909 -0.92300833
0.0055519491 0.37540449 -0.92684445
0.074572385 0.36799442 -0.92683281
0.15764042 0.3413087 -0.92663794
0.24042567 0.3171049 -0.91740939
0.30917167 0.28980461 -0.90577379
0.37157728 0.26544445 -0.88964576
0.44293902 0.23392774 -0.86549572
0.5126291 0.20904715 -0.8327729
0.56385169 0.17964858 -0.80610028
0.59819515 0.16080936 -0.78504962
0.63003302 0.14251245 -0.76337972
0.65849299 0.12839961 -0.74155278
0.68834537 0.11162452 -0.71674306
0.71330841 0.095786476 -0.69427377
0.73280694 0.079327002 -0.67579673
-0.71705104 0.35117365 -0.60209208
-0.69355444 0.36789783 -0.61938149
-0.67769054 0.37720049 -0.63123318
-0.65518166 0.38972992 -0.64718435
-0.61764535 0.40057456 -0.67679705
-0.56913968 0.39662023 -0.72025858
-0.52931084 0.38865406 -0.75417375
-0.48679479 0.39793745 -0.77760956
-0.42484664 0.40302765 -0.81060104
-0.37566126 0.38561049 -0.84272366
-0.30178015 0.38014162 -0.87431178
-0.2199982 0.36226845 -0.90573857
-0.1627133 0.34403001 -0.9247528
-0.10492059 0.3293 -0.93837795
-0.041739278 0.30013574 -0.95298288
0.021814641 0.28736613 -0.95757236
0.099764989 0.26710336 -0.95848982
0.17800607 0.2470426 -0.95251446
0.25721971 0.23855296 -0.93644568
0.32925083 0.22546237 -0.91692999
0.40578519 0.21584131 -0.8881165
0.47058627 0.19637749 -0.86022349
0.53512736 0.17104916 -0.82727317
0.57960728 0.15232864 -0.80053194
0.61176523 0.12811133 -0.78059643
0.64430234 0.11096919 -0.75667717
0.6757247 0.092588101 -0.73131633
0.70573873 0.080278167 -0.70390927
0.72928262 0.066515043 -0.68097181
0.746374 0.061200737 -0.66270681
-0.7294171 0.31658253 -0.60640431
-0.70767218 0.33230797 -0.62351544
-0.68383728 0.34193466 -0.64455198
-0.66260649 0.33030889 -0.67219691
-0.62058525 0.32825935 -0.71212341
-0.57450122 0.33131905 -0.74844909
-0.52634774 0.32350015 -0.78632418
-0.49019761 0.32197781 -0.80996086
-0.41982804 0.31487212 -0.85123438
-0.36528345 0.29592333 -0.88260828
-0.28750112 0.27152555 -0.91848624
-0.20592294 0.26375828 -0.94235201
-0.14018308 0.26128383 -0.95502852
-0.083567205 0.25352324 -0.96371287
-0.014786944 0.22369825 -0.97454627
0.055262997 0.20312834 -0.97759137
0.12663761 0.18694625 -0.9741735
0.20509077 0.18382182 -0.96132581
0.2817859 0.16722543 -0.94479223
0.35432679 0.16290786 -0.92082222
0.43085453 0.15693635 -0.88867056
0.49956731 0.1508342 -0.85304252
0.55778616 0.1394451 -0.81818682
0.59905856 0.11812041 -0.79194471
0.63216198 0.095880153 -0.76888115
0.66350583 0.076991444 -0.74419912
0.69379246 0.061774629 -0.71752068
0.71964691 0.047021998 -0.69274617
0.73870942 0.04023916 -0.67282183
0.75259464 0.047471514 -0.65677071
-0.73446077 0.28058427 -0.61793191
-0.71115731 0.2888313 -0.64096159
-0.69373066 0.27867857 -0.66413555
-0.66819335 0.2625605 -0.69611754
-0.6175079 0.255388 -0.74394957
-0.56874425 0.24755628 -0.7843761
-0.52123053 0.2263757 -0.82284432
-0.48253367 0.19970769 -0.85280601
-0.41173291 0.19185258 -0.8908808
-0.34451499 0.18185041 -0.92099938
-0.27787658 0.17206837 -0.94508046
-0.19225189 0.17036451 -0.96644459
-0.12347311 0.17021097 -0.97764135
-0.062774876 0.15155684 -0.98645316
0.0054236213 0.12401085 -0.99226604
0.059592547 0.12090103 -0.99087419
0.13202341 0.1172477 -0.98428796
0.20704345 0.12302128 -0.97056621
0.2940097 0.10945178 -0.94951493
0.3616064 0.11102556 -0.92569657
0.44093615 0.10654346 -0.89119235
0.51580823 0.10474011 -0.85027724
0.57898119 0.094503593 -0.80984557
0.62067982 0.069582805 -0.78097042
0.65277876 0.056331664 -0.75545128
0.68288989 0.041781191 -0.72932554
0.70894247 0.027124916 -0.7047445
0.73021417 0.014186037 -0.68307102
0.7466929 0.019420603 -0.66488537
0.75797718 0.026596283 -0.65173862
-0.74335047 0.23369659 -0.62675034
-0.72098662 0.22801987 -0.65435864
-0.6981238 0.21048077 -0.68433983
-0.65593171 0.17771367 -0.73360169
-0.61253102 0.14229912 -0.77753245
-0.57173235 0.1409911 -0.80823489
-0.51506828 0.10432583 -0.85077658
-0.47171419 0.076825324 -0.87839831
-0.39377661 0.050910635 -0.91779523
-0.33546274 0.038337925 -0.94127305
-0.26708838 0.038112354 -0.96291809
-0.19069882 0.039553823 -0.98085139
-0.11507573 0.049163554 -0.99213937
-0.053289062 0.051214312 -0.99726494
0.016304438 0.038818612 -0.99911325
0.070350295 0.043796026 -0.99656046
0.13901828 0.052021505 -0.98892249
0.22006373 0.054053768 -0.97398673
0.30552228 0.046609716 -0.95104347
0.37462992 0.055997805 -0.92548186
0.44874919 0.060808612 -0.89158649
0.52943701 0.053943072 -0.8466325
0.59128735 0.043714927 -0.80527528
0.63942071 0.033380381 -0.76813209
0.67241374 0.016852772 -0.73998361
0.69967494 0.0019544992 -0.71445865
0.71955739 -0.0055851509 -0.69441051
0.73818269 -0.0094640521 -0.67453447
0.75047901 0.00099688633 -0.66089353
0.76528319 0.0087461689 -0.64363432
-0.74784083 0.15823444 -0.64474487
-0.72729106 0.12639328 -0.67459058
-0.69159451 0.095293195 -0.71597223
-0.64827334 0.0559743 -0.75934745
-0.61253207 0.029206994 -0.78990595
-0.56657954 0.0076358225 -0.82397167
-0.51770481 -0.012006481 -0.85547506
-0.46135459 -0.038973587 -0.88635941
-0.38928217 -0.068492918 -0.91856851
-0.3255771 -0.086280926 -0.94157058
-0.26490243 -0.082578015 -0.96073283
-0.20479333 -0.07870144 -0.97563609
-0.11868254 -0.065659461 -0.99075895
-0.05346069 -0.04790746 -0.99742009
0.005395025 -0.03786545 -0.99926828
0.073608174 -0.03536949 -0.99665984
0.14720258 -0.028798734 -0.98868702
0.23042162 -0.019012938 -0.97290513
0.30628716 -0.017479034 -0.95177868
0.37957878 -0.017367817 -0.92499638
0.45667824 -0.0060131251 -0.88961162
0.54208436 -0.0097447334 -0.84026757
0.61024297 -0.0064936134 -0.7921877
0.65689299 -0.005382925 -0.75396461
0.6887291 -0.029671012 -0.72441138
0.71331467 -0.040368205 -0.69968035
0.73049631 -0.039494406 -0.68177367
0.74151997 -0.036510627 -0.66993665
0.75505408 -0.021382427 -0.65531377
0.7708849 -0.012883043 -0.63684417
-0.75068099 0.052101115 -0.65860726
-0.72228103 0.0072941421 -0.69156121
-0.67532586 -0.020026912 -0.73724752
-0.63545204 -0.043146413 -0.77093391
-0.59705914 -0.067157145 -0.7993812
-0.56209183 -0.098309266 -0.82121134
-0.50588117 -0.13011891 -0.85273285
-0.44795095 -0.15145746 -0.88113596
-0.38855613 -0.1809602 -0.90348079
-0.32323434 -0.19869441 -0.92522435
-0.28330613 -0.19446558 -0.93910637
-0.22614086 -0.17826226 -0.95764444
-0.14136741 -0.14605434 -0.97912378
-0.068187403 -0.13371624 -0.98867105
0.0071025975 -0.12548733 -0.9920698
0.071356724 -0.12600093 -0.98946045
0.14523039 -0.11013888 -0.98324847
0.22985132 -0.10068063 -0.96800402
0.30588989 -0.10405762 -0.94636324
0.38204319 -0.10425931 -0.91824452
0.45975041 -0.086385953 -0.88383654
0.55420145 -0.070631383 -0.82938047
0.62805152 -0.048387681 -0.7766659
0.67168873 -0.051965566 -0.73900868
0.69886952 -0.072592326 -0.71155587
0.7227184 -0.068345508 -0.68775504
0.73436966 -0.063446699 -0.67577787
0.74497129 -0.060943351 -0.66430692
0.7607311 -0.042589245 -0.64766839
0.77202859 -0.028290453 -0.63495788
-0.74499417 -0.028336046 -0.66646887
-0.70793964 -0.08340191 -0.7013313
-0.6647718 -0.12887522 -0.7358462
-0.62263336 -0.15831273 -0.76633203
-0.58594263 -0.1711298 -0.79207691
-0.54207124 -0.1949578 -0.81740456
-0.48490504 -0.24010029 -0.84096311
-0.41498312 -0.27087222 -0.86857196
-0.36855265 -0.2923999 -0.8824235
-0.32901636 -0.29767647 -0.89617909
-0.28915077 -0.29389192 -0.91105399
-0.24120585 -0.28055338 -0.92903689
-0.1744464 -0.25987334 -0.94975486
-0.099233229 -0.24476693 -0.96449049
-0.030471629 -0.22750618 -0.97329976
0.065753366 -0.23263434 -0.97033899
0.14841723 -0.23354777 -0.96095149
0.22951741 -0.21946975 -0.94823773
0.3017417 -0.19002706 -0.93425996
0.37185123 -0.17854073 -0.91096096
0.45266676 -0.1747918 -0.87438014
0.55553541 -0.14990492 -0.81786852
0.63131444 -0.11881147 -0.76637191
0.68010118 -0.10638706 -0.72535797
0.70961329 -0.096578179 -0.69794099
0.72718825 -0.097859635 -0.67942677
0.73815919 -0.091702736 -0.66836489
0.745196 -0.07880884 -0.66217224
0.75996897 -0.0647473 -0.64672633
0.77398417 -0.041774195 -0.63182546
-0.72705555 -0.13237134 -0.6736973
-0.68447823 -0.17857965 -0.70682308
-0.64820974 -0.22327798 -0.72799113
-0.60315874 -0.25832378 -0.75463127
-0.56906377 -0.27677529 -0.7743138
-0.52070014 -0.30437323 -0.7976392
-0.45997493 -0.3332329 -0.82303032
-0.41034589 -0.34975751 -0.84219115
-0.36971562 -0.36628743 -0.85389922
-0.33072359 -0.3728527 -0.86695027
-0.28493667 -0.37673695 -0.88140817
-0.23701701 -0.38013773 -0.894046
-0.16962176 -0.3753787 -0.91121858
-0.11567096 -0.37714316 -0.91890329
-0.043735557 -0.36230127 -0.93103436
0.035448469 -0.35187363 -0.93537605
0.12999253 -0.3294954 -0.93516561
0.21513155 -0.305905 -0.92743762
0.29730416 -0.31169353 -0.90247292
0.36890459 -0.2875872 -0.88385689
0.45777184 -0.26875905 -0.84747479
0.5502747 -0.2284908 -0.80311251
0.6283891 -0.19000172 -0.75433844
0.68574561 -0.14967372 -0.71228557
0.7135754 -0.13372359 -0.68769772
0.72814124 -0.12587653 -0.67376957
0.73863667 -0.11114734 -0.66487753
0.74883829 -0.10359056 -0.65460692
0.76162339 -0.088911167 -0.64189144
0.77425443 -0.069206133 -0.62907916
-0.70435226 -0.22128114 -0.67447947
-0.66683298 -0.25585681 -0.6999079
-0.62818309 -0.30021305 -0.71781483
-0.58728512 -0.32884556 -0.73956526
-0.54366005 -0.35296094 -0.76148035
-0.5026478 -0.37320312 -0.77978498
-0.44990757 -0.39020099 -0.80332208
-0.39842562 -0.41252898 -0.81919281
-0.36161823 -0.42386111 -0.83040594
-0.32799568 -0.42674686 -0.84279651
-0.28517858 -0.45042595 -0.84604352
-0.23447146 -0.4680012 -0.85205517
-0.16701435 -0.48564619 -0.85805244
-0.1190796 -0.49101021 -0.86297684
-0.049199451 -0.47966074 -0.87607362
0.021125015 -0.46433597 -0.88540716
0.12159378 -0.43055788 -0.89433487
0.19945854 -0.41804186 -0.88626029
0.28635016 -0.38514665 -0.8773059
0.36298325 -0.36917957 -0.85554053
0.43230553 -0.34708159 -0.83225375
0.54092996 -0.30460758 -0.78397002
0.62337776 -0.25347165 -0.73969744
0.68562511 -0.19409781 -0.70160121
0.71098919 -0.17120346 -0.68204381
0.72864025 -0.14412891 -0.66955974
0.73929657 -0.13598897 -0.65950555
0.74902202 -0.12590253 -0.65047257
0.76466149 -0.10966816 -0.63503205
0.77514943 -0.087285221 -0.62571931
-0.68064493 -0.27793326 -0.67784628
-0.64619177 -0.31260396 -0.69621474
-0.61021466 -0.35199529 -0.70974459
-0.56837003 -0.38792124 -0.72558433
-0.5257199 -0.41433902 -0.74292783
-0.48245023 -0.44199544 -0.75622867
-0.43646163 -0.45713119 -0.7749402
-0.39589738 -0.46400916 -0.79243975
-0.35775602 -0.48021722 -0.8008758
-0.3156848 -0.498043 -0.80764861
-0.26964809 -0.51965818 -0.81070666
-0.22264677 -0.54593359 -0.80770349
-0.16468452 -0.5487293 -0.81961892
-0.11936029 -0.54588587 -0.82931402
-0.074421282 -0.55493386 -0.82855892
-0.0038148515 -0.54360384 -0.83933326
0.092495773 -0.51603828 -0.85155682
0.18007958 -0.49006092 -0.85288431
0.2604433 -0.45844249 -0.8497057
0.35340874 -0.4236883 -0.83402068
0.43057107 -0.40090721 -0.80862968
0.51502431 -0.37156331 -0.77245755
0.60817211 -0.31337503 -0.72933036
0.67802109 -0.2435411 -0.69352371
0.70829826 -0.19689893 -0.67789703
0.72871267 -0.16874994 -0.66370272
0.74079901 -0.15814555 -0.65284516
0.74988883 -0.14466354 -0.6455534
0.76337386 -0.13262703 -0.63219492
0.77250509 -0.11145321 -0.62515123
-0.65885938 -0.31861559 -0.68146051
-0.62256266 -0.35855098 -0.69559825
-0.58714386 -0.39781366 -0.70498679
-0.54635528 -0.43604763 -0.71509326
-0.50584904 -0.46386836 -0.7272846
-0.46237264 -0.48757066 -0.74059867
-0.42262826 -0.50665978 -0.75145274
-0.38705099 -0.51335873 -0.76593364
-0.33924154 -0.54493829 -0.76678383
-0.29289875 -0.55714486 -0.77704564
-0.24616798 -0.57605396 -0.77946338
-0.19184821 -0.59449511 -0.7808776
-0.1661096 -0.59840318 -0.78378647
-0.13033001 -0.60258155 -0.78734336
-0.088118506 -0.5953628 -0.79861021
-0.030092664 -0.59177369 -0.80554226
0.07054443 -0.58503276 -0.80793573
0.1568853 -0.56707377 -0.80858787
0.24411156 -0.53404041 -0.80945067
0.32788405 -0.50735779 -0.79691914
0.41091869 -0.47709533 -0.77686928
0.50718096 -0.42644642 -0.74893987
0.59285781 -0.36331594 -0.71869405
0.66336877 -0.28342179 -0.69254168
0.70378682 -0.22582149 -0.67356423
0.72261705 -0.19540856 -0.66305361
0.73889337 -0.17384235 -0.65101108
0.75033867 -0.15731309 -0.64206268
0.76427024 -0.1426952 -0.62891102
0.7716208 -0.1329465 -0.62203422
-0.63336546 -0.36376367 -0.68302576
-0.60054375 -0.40178675 -0.69131368
-0.56167119 -0.43805587 -0.70187786
-0.52267041 -0.47634613 -0.70704315
-0.48155598 -0.50575166 -0.71576469
-0.44640762 -0.52885923 -0.7218228
-0.4107351 -0.54650369 -0.72981531
-0.36390707 -0.5646259 -0.7407896
-0.31675584 -0.59205644 -0.74103637
-0.26387489 -0.61301298 -0.74470473
-0.22388944 -0.62315448 -0.74936774
-0.19426028 -0.63450061 -0.74811224
-0.16628698 -0.63943868 -0.75064426
-0.13123987 -0.64357125 -0.75405049
-0.090637735 -0.64115624 -0.76203902
-0.033099807 -0.6416446 -0.76628755
0.050409983 -0.62931786 -0.77551136
0.13023117 -0.61910016 -0.7744384
0.22088556 -0.60024332 -0.7687116
0.30399262 -0.58391823 -0.75274696
0.39581465 -0.54859654 -0.73645951
0.47429885 -0.49696936 -0.72667879
0.56317035 -0.42202305 -0.71044754
0.65061843 -0.32105597 -0.68819963
0.68982301 -0.26588056 -0.67338825
0.72050908 -0.21584022 -0.65899899
0.73751029 -0.19414942 -0.64682655
0.74781373 -0.1789175 -0.63934588
0.76353363 -0.15846358 -0.62602371
0.7729953 -0.14970682 -0.61649504
-0.59843993 -0.39653735 -0.69615212
-0.56980059 -0.42972908 -0.70047142
-0.52718841 -0.47578517 -0.70406026
-0.48341591 -0.51611535 -0.70706011
-0.45134985 -0.54189979 -0.70896257
-0.41949264 -0.56534278 -0.71022072
-0.3909376 -0.58259709 -0.71256468
-0.34731865 -0.60392829 -0.7173844
-0.29598103 -0.62864024 -0.71917083
-0.2469722 -0.64469448 -0.72344575
-0.21316252 -0.65569489 -0.72431067
-0.18935147 -0.66091891 -0.72617644
-0.16265075 -0.66317867 -0.73057429
-0.13102002 -0.66912264 -0.73151121
-0.080498 -0.68051129 -0.72830245
-0.02744974 -0.68655673 -0.72655789
0.050892945 -0.67797409 -0.73332192
0.12456566 -0.67434924 -0.72782999
0.22397157 -0.65539614 -0.72131314
0.29374986 -0.62827145 -0.72040683
0.37527707 -0.58895562 -0.71575024
0.44208134 -0.5441862 -0.7130396
0.54169345 -0.46477063 -0.70039737
0.62913469 -0.37339707 -0.68173614
0.67717786 -0.29994749 -0.67190896
0.71938284 -0.24258063 -0.65087862
0.73553084 -0.21654369 -0.64195266
0.74719161 -0.19545828 -0.63521709
0.76207462 -0.17819589 -0.62248574
0.77361386 -0.16793827 -0.61099782
-0.55804382 -0.43805268 -0.7047673
-0.52873937 -0.47366348 -0.70432775
-0.48779896 -0.51289298 -0.70639434
-0.45415497 -0.54732969 -0.70297473
-0.42318398 -0.57099622 -0.70347611
-0.39325388 -0.5924896 -0.70307003
-0.35350162 -0.61885291 -0.70146823
-0.312132 -0.63794255 -0.70399071
-0.27470397 -0.65446458 -0.70442448
-0.2345207 -0.67005793 -0.70428858
-0.20758276 -0.67742993 -0.70568979
-0.17946554 -0.68239795 -0.70860791
-0.15692897 -0.68622431 -0.71026016
-0.11720956 -0.6984613 -0.70598423
-0.067482873 -0.70938674 -0.70158144
-0.0069262763 -0.72095781 -0.69294435
0.060440017 -0.72219814 -0.68904053
0.13066681 -0.71605877 -0.68570111
0.20407793 -0.69779833 -0.68660738
0.27223229 -0.66937168 -0.6912533
0.33505343 -0.63889777 -0.69249465
0.4170328 -0.59478536 -0.68725106
0.51344967 -0.51205675 -0.68859808
0.61019911 -0.41969397 -0.67194793
0.66859964 -0.34097525 -0.66084067
0.70642003 -0.28679111 -0.64708701
0.73144534 -0.24532853 -0.63624023
0.74449665 -0.22319198 -0.62921386
0.76229074 -0.19717135 -0.61647083
0.77485032 -0.18222791 -0.60530981
-0.5162549 -0.48924228 -0.70293874
-0.48611429 -0.51612962 -0.70519722
-0.45606861 -0.54782398 -0.70134892
-0.42392902 -0.57963308 -0.69592362
-0.38907576 -0.60581715 -0.69397813
-0.35420996 -0.62776478 -0.69314262
-0.32327949 -0.64687205 -0.69068583
-0.28881928 -0.66443262 -0.68928421
-0.25629606 -0.67690987 -0.69000388
-0.21702636 -0.69236566 -0.68813469
-0.19413828 -0.69779348 -0.68948864
-0.16684747 -0.70445579 -0.68985793
-0.13481296 -0.71420439 -0.68683153
-0.090473317 -0.7265101 -0.68117373
-0.045112521 -0.73642236 -0.67501628
0.010296256 -0.74193087 -0.67039733
0.065332134 -0.74477028 -0.66411516
0.12102034 -0.74260924 -0.65869992
0.18693152 -0.72635842 -0.66140763
0.25314021 -0.69878376 -0.66904506
0.30511255 -0.67195183 -0.67482373
0.38957494 -0.62235146 -0.67890355
0.48764799 -0.55683523 -0.67240907
0.58350008 -0.4668348 -0.66452458
0.64373466 -0.39615735 -0.65472516
0.69581306 -0.31681225 -0.64457287
0.7281995 -0.27329178 -0.62851976
0.7417014 -0.25043375 -0.62222342
0.76098258 -0.22468516 -0.60862311
0.77539962 -0.20916818 -0.59582221
-0.47810172 -0.52808506 -0.70181544
-0.45546978 -0.54939494 -0.70050873
-0.42187822 -0.57950786 -0.69727284
-0.3902211 -0.60823341 -0.69121604
-0.36173832 -0.63344749 -0.68402461
-0.33203383 -0.65205536 -0.6815991
-0.30416661 -0.66667559 -0.68046038
-0.27261983 -0.68317234 -0.67746143
-0.24075873 -0.69470845 -0.67780189
-0.19993839 -0.71083666 -0.67434107
-0.16643153 -0.72415658 -0.66925167
-0.14317503 -0.73041363 -0.66782995
-0.10676466 -0.74206004 -0.66177656
-0.061556125 -0.75295936 -0.65518169
-0.024151357 -0.76036993 -0.64904104
0.027750199 -0.76420946 -0.64437088
0.067881186 -0.76239849 -0.64353763
0.12143403 -0.74967269 -0.65057255
0.16877091 -0.74390771 -0.64662021
0.2298882 -0.71888828 -0.65601147
0.28895241 -0.69715271 -0.65611325
0.3617008 -0.65912249 -0.65934064
0.46884849 -0.59077685 -0.65663065
0.55955292 -0.51392115 -0.65021964
0.62936578 -0.43218563 -0.64584386
0.67876863 -0.37452887 -0.63166548
0.71738204 -0.31311318 -0.62235291
0.74137337 -0.27833884 -0.61064967
0.7578888 -0.25599784 -0.60005806
0.77105121 -0.23593209 -0.59145251
-0.45084864 -0.55513692 -0.6989696
-0.41730587 -0.57930081 -0.70019024
-0.38078074 -0.61167912 -0.69343686
-0.34651359 -0.64012783 -0.68568556
-0.32483085 -0.66123438 -0.6762056
-0.30311549 -0.6790418 -0.66859796
-0.27889485 -0.69037049 -0.66753745
-0.2477501 -0.70784104 -0.66149901
-0.21496111 -0.71946615 -0.66042425
-0.17402709 -0.73356341 -0.65696217
-0.13628454 -0.74851285 -0.64896459
-0.099880085 -0.76448782 -0.63685347
-0.079988231 -0.76966731 -0.63341465
-0.042243701 -0.77473731 -0.63087049
-0.00253123 -0.77768384 -0.62865049
0.032975037 -0.77585283 -0.63005162
0.071139462 -0.77474343 -0.62826093
0.10925676 -0.77014509 -0.62844212
0.159713 -0.75947895 -0.6306215
0.20970122 -0.74437529 -0.63398014
0.27105916 -0.72224044 -0.63631414
0.34546295 -0.68893883 -0.63719592
0.44916166 -0.62645597 -0.63702961
0.5359511 -0.56623176 -0.62620924
0.60462789 -0.49677166 -0.62260985
0.66530784 -0.41912249 -0.61782022
0.7044277 -0.36311743 -0.60985847
0.73624635 -0.31318594 -0.59987989
0.75848603 -0.28302506 -0.58702279
0.77140445 -0.26637208 -0.57791097
-0.43212915 -0.57777182 -0.69241904
-0.38397762 -0.60757509 -0.69527958
-0.33856745 -0.6432586 -0.68672444
-0.31078361 -0.67017201 -0.67400521
-0.2946499 -0.68552248 -0.66576299
-0.27688386 -0.70097608 -0.65724262
-0.25218626 -0.71613075 -0.65081398
-0.22267356 -0.73052574 -0.6455607
-0.1852851 -0.74837476 -0.63687098
-0.14096083 -0.76260942 -0.63131365
-0.10725666 -0.77389815 -0.62416157
-0.073030082 -0.78375247 -0.61676468
-0.049218974 -0.78733926 -0.61455218
-0.023671616 -0.79178208 -0.61034481
0.012123219 -0.79150195 -0.61104639
0.041850322 -0.78984931 -0.6118714
0.073909817 -0.79024757 -0.60831416
0.10389558 -0.78712663 -0.6079781
0.14309018 -0.78043634 -0.60864136
0.19360239 -0.76787792 -0.61064033
0.2555087 -0.74874155 -0.61163828
0.33280876 -0.71790037 -0.61143879
0.43088491 -0.66749197 -0.60728302
0.51231262 -0.61252281 -0.60195647
0.57954681 -0.55988511 -0.59216058
0.63274948 -0.49186517 -0.59807754