# vtk DataFile Version 2.0
Grain example
ASCII
DATASET UNSTRUCTURED_GRID
POINTS 900 float
6.6922167 -5.8377282 -18.64603
6.9567713 -6.0784234 -18.123408
7.2020706 -6.2224508 -17.63903
7.4520942 -6.2994511 -17.211103
7.6939432 -6.3730485 -16.787442
7.9211629 -6.4296427 -16.332303
8.1516806 -6.4487395 -15.876138
8.3728664 -6.4589605 -15.40133
8.60184 -6.4583876 -14.909874
8.8304027 -6.4790002 -14.36899
9.0734745 -6.5062415 -13.749582
9.3233299 -6.5513123 -13.06502
9.5942602 -6.5719752 -12.3218
9.8564732 -6.5767139 -11.489807
10.094985 -6.5803398 -10.529861
10.288135 -6.5610704 -9.4958403
10.462886 -6.5513669 -8.4568897
10.616321 -6.5627559 -7.4051595
10.752594 -6.5753485 -6.3903396
10.850431 -6.592324 -5.4531426
10.89859 -6.614953 -4.6147809
10.924494 -6.6456707 -3.8383699
10.942964 -6.6737314 -3.0950958
10.965568 -6.6955189 -2.3516656
10.981852 -6.7210501 -1.6562628
11.003985 -6.7380272 -1.0841715
11.013121 -6.7699101 -0.54400766
11.025655 -6.7867151 -0.01037488
11.01634 -6.8013764 0.50499779
11.002627 -6.8185611 1.0221112
6.8439803 -5.1573504 -19.084139
7.1880047 -5.3797975 -18.56066
7.5100946 -5.5878623 -18.027331
7.794683 -5.6986912 -17.547999
8.0714507 -5.7539115 -17.122092
8.3378614 -5.8137684 -16.691487
8.5890698 -5.8589741 -16.207676
8.8205666 -5.8578133 -15.728829
9.0479798 -5.8632511 -15.247518
9.2799528 -5.8789657 -14.692613
9.5280568 -5.9073745 -14.07846
9.7888182 -5.941299 -13.389659
10.046003 -5.9823424 -12.629563
10.281618 -6.0251458 -11.789456
10.50426 -6.0573259 -10.835668
10.70982 -6.0699729 -9.7656021
10.862061 -6.0808914 -8.7142731
11.015207 -6.0928297 -7.6569976
11.15603 -6.1038794 -6.6360548
11.283703 -6.1135085 -5.6534616
11.374282 -6.1180841 -4.7338257
11.396963 -6.154138 -3.9353078
11.420645 -6.1780873 -3.1767555
11.43624 -6.2108725 -2.4505811
11.450046 -6.243738 -1.7513064
11.460476 -6.2780675 -1.0953445
11.470566 -6.3004133 -0.54021148
11.476944 -6.3180262 -0.014107807
11.460185 -6.3368379 0.49304931
11.442139 -6.3589905 0.99952154
6.9725903 -4.5458857 -19.460118
7.3409597 -4.720086 -18.958572
7.7327865 -4.8907457 -18.425997
8.0961525 -5.0575222 -17.906523
8.4059759 -5.1529085 -17.436734
8.6961657 -5.1975654 -17.009219
8.9914232 -5.224293 -16.551568
9.2448159 -5.2784489 -16.031245
9.4522542 -5.2955437 -15.522489
9.6711623 -5.3330311 -14.940929
9.9226482 -5.3797856 -14.279948
10.168563 -5.4336068 -13.575076
10.402897 -5.491032 -12.804634
10.648904 -5.5384886 -11.989289
10.871018 -5.5787141 -11.064436
11.092191 -5.6010286 -10.025229
11.261726 -5.6108571 -8.9693766
11.414873 -5.6231095 -7.9094419
11.56134 -5.6292223 -6.8815408
11.699262 -5.6416238 -5.8733293
11.81953 -5.6314547 -4.9048017
11.888466 -5.6412253 -4.0405817
11.907237 -5.6712426 -3.2815798
11.922831 -5.7040284 -2.5554045
11.938704 -5.7337574 -1.8560517
11.941455 -5.7666928 -1.1887778
11.933386 -5.8052417 -0.57303233
11.928518 -5.8334413 -0.021943829
11.911493 -5.8485023 0.48711178
11.891422 -5.8651909 0.98621107
7.0780123 -4.0237562 -19.699203
7.4608818 -4.189555 -19.180923
7.8503393 -4.3460466 -18.662711
8.2392189 -4.5036381 -18.133407
8.5946236 -4.647417 -17.620556
8.9071803 -4.7460258 -17.131618
9.1995646 -4.8021399 -16.646312
9.4733268 -4.8536675 -16.14382
9.7189215 -4.903657 -15.602422
9.9589921 -4.9348088 -15.006668
10.227668 -4.9756713 -14.348704
10.47019 -5.0288366 -13.672138
10.711173 -5.0805732 -12.904169
10.965495 -5.1214971 -12.103487
11.184812 -5.1672823 -11.221843
11.414865 -5.1838687 -10.19217
11.61931 -5.1948948 -9.1654911
11.77934 -5.1988558 -8.0978733
11.934466 -5.2008257 -7.0653663
12.083988 -5.198504 -6.05243
12.229844 -5.1687561 -5.0637377
12.346191 -5.1500439 -4.1560011
12.390138 -5.1646796 -3.3728827
12.405397 -5.1912689 -2.6324247
12.42127 -5.2209983 -1.933071
12.411609 -5.2548983 -1.2860994
12.404893 -5.2865196 -0.63441399
12.3942 -5.3156902 -0.057498002
12.362332 -5.3551114 0.47258771
12.337108 -5.3851645 0.96894589
7.142957 -3.5574472 -19.83629
7.530102 -3.7090248 -19.319906
7.9249806 -3.8559024 -18.800853
8.3127786 -3.9959858 -18.285227
8.6925333 -4.1456195 -17.763078
9.0383352 -4.2831918 -17.241044
9.3635718 -4.3845861 -16.733702
9.6642277 -4.4370801 -16.238168
9.9392997 -4.4902809 -15.692442
10.218757 -4.5417329 -15.075894
10.488122 -4.5955386 -14.408909
10.743705 -4.653548 -13.730559
11.003634 -4.6910071 -12.976235
11.249934 -4.7351217 -12.190175
11.476092 -4.7813232 -11.325633
11.708755 -4.8011019 -10.309662
11.940801 -4.814063 -9.283842
12.112886 -4.8128961 -8.2302291
12.276553 -4.8116305 -7.1850416
12.445707 -4.7881628 -6.147294
12.601404 -4.7560712 -5.1752302
12.728581 -4.7249378 -4.2408869
12.813337 -4.7118585 -3.3878183
12.841175 -4.7405808 -2.6341998
12.839005 -4.7863916 -1.9415536
12.826432 -4.8207778 -1.2816683
12.820426 -4.8501571 -0.61820466
12.79593 -4.8769496 -0.019879786
12.766973 -4.9158848 0.49729375
12.728817 -4.9572553 0.99697876
7.1999973 -3.0773929 -19.967461
7.6026554 -3.2263171 -19.454478
7.9952 -3.3725811 -18.933603
8.3857428 -3.5090803 -18.423751
8.7601939 -3.6493326 -17.899404
9.1303457 -3.7927599 -17.368072
9.4712117 -3.9253542 -16.840498
9.8046273 -4.0314039 -16.318252
10.119123 -4.0873773 -15.768945
10.422451 -4.1682037 -15.139566
10.718546 -4.2243408 -14.467438
10.997157 -4.2715726 -13.785301
11.257839 -4.3199571 -13.039295
11.514529 -4.3585752 -12.265353
11.75631 -4.3958208 -11.425143
11.9955 -4.4135585 -10.413238
12.230658 -4.4273375 -9.3898471
12.450158 -4.4254881 -8.3531586
12.630871 -4.4008317 -7.2944461
12.809491 -4.3678749 -6.266992
12.975567 -4.3336574 -5.2783617
13.109117 -4.2974664 -4.3402882
13.201838 -4.2791975 -3.4564378
13.253108 -4.2933319 -2.6667004
13.260716 -4.3356067 -1.9676599
13.247764 -4.3723973 -1.2861962
13.228868 -4.4044941 -0.62669899
13.194351 -4.4421189 -0.03795949
13.153414 -4.4828341 0.49751009
13.111569 -4.5275026 0.98689673
7.2452651 -2.5782699 -20.09333
7.6564807 -2.7294451 -19.587021
8.0698204 -2.886737 -19.068098
8.4569405 -3.0272678 -18.546622
8.8246436 -3.1515755 -18.038544
9.1949945 -3.2963072 -17.496726
9.5524983 -3.4351553 -16.96617
9.9131778 -3.571235 -16.402785
10.256685 -3.6935596 -15.838585
10.58085 -3.7768133 -15.218451
10.905537 -3.8683422 -14.529553
11.192592 -3.9195165 -13.83937
11.479733 -3.9620183 -13.091281
11.763931 -3.994839 -12.317702
12.01747 -4.0307498 -11.491328
12.261339 -4.0429082 -10.507987
12.510329 -4.0419263 -9.486935
12.766141 -4.0202643 -8.4314378
12.967408 -3.9828511 -7.4112609
13.163495 -3.940082 -6.3880131
13.345178 -3.9014343 -5.3852034
13.49011 -3.8584494 -4.4402969
13.572461 -3.8533866 -3.561283
13.640409 -3.8591411 -2.7282172
13.667147 -3.877672 -2.0084496
13.667695 -3.9088518 -1.3164845
13.634 -3.9597243 -0.66707162
13.587973 -4.007201 -0.075267668
13.543923 -4.0470977 0.46262987
13.493854 -4.0926955 0.96822742
7.297423 -2.0871434 -20.20498
7.7035721 -2.2344818 -19.716003
8.1157652 -2.3871665 -19.199816
8.5162681 -2.5410813 -18.670877
8.8835609 -2.669587 -18.158849
9.2528093 -2.8011107 -17.627063
9.6132139 -2.9462801 -17.084496
9.9904876 -3.0972152 -16.510834
10.35262 -3.2487859 -15.919067
10.732465 -3.3870053 -15.296394
11.053355 -3.4910029 -14.621935
11.367617 -3.5629543 -13.903152
11.671323 -3.6048016 -13.144652
11.972629 -3.6376088 -12.356845
12.254024 -3.6694639 -11.55004
12.520147 -3.6751042 -10.557346
12.791818 -3.6392946 -9.5380537
13.056459 -3.6079002 -8.525969
13.289975 -3.5624098 -7.523344
13.492967 -3.51441 -6.4994424
13.685022 -3.4809563 -5.5002478
13.830772 -3.4516926 -4.5565747
13.926256 -3.4366168 -3.6704032
13.998764 -3.4386772 -2.8330391
14.056243 -3.4335781 -2.0441685
14.049383 -3.4731475 -1.3904308
14.021778 -3.5237819 -0.74492345
13.976794 -3.5721968 -0.13180511
13.927256 -3.6192621 0.41763482
13.877319 -3.6637181 0.94610398
7.3529713 -1.6030929 -20.299682
7.753439 -1.7341407 -19.833126
8.1593309 -1.8802356 -19.320975
8.5479423 -2.0340769 -18.789771
8.9218262 -2.1686219 -18.279254
9.3055462 -2.3088843 -17.749806
9.6686519 -2.4590705 -17.205717
10.046393 -2.6150604 -16.623467
10.431436 -2.774849 -16.030951
10.825046 -2.9487086 -15.377639
11.203625 -3.0952832 -14.713102
11.538211 -3.1889417 -13.970017
11.85848 -3.2256706 -13.206065
12.166442 -3.2615683 -12.41206
12.478807 -3.2826896 -11.592089
12.773379 -3.2634743 -10.599724
13.053031 -3.2340327 -9.5998344
13.328722 -3.1966582 -8.5894841
13.598642 -3.1448474 -7.5855237
13.814846 -3.0965671 -6.6038516
14.010953 -3.0635914 -5.5963325
14.17017 -3.0305101 -4.6597859
14.277537 -3.0136279 -3.7918357
14.350128 -3.0095643 -2.9573205
14.394521 -3.021225 -2.1843454
14.418759 -3.0390603 -1.4794361
14.398264 -3.082365 -0.83525012
14.359638 -3.1342922 -0.22793733
14.305344 -3.1943144 0.36355424
14.251007 -3.2412928 0.8937649
7.4107861 -1.1172101 -20.38382
7.7992063 -1.2382789 -19.932779
8.1822047 -1.3782757 -19.436383
8.5744601 -1.5250894 -18.909964
8.9491007 -1.6641399 -18.396405
9.3339219 -1.8176101 -17.856926
9.7216878 -1.968801 -17.312732
10.098576 -2.1349802 -16.740207
10.478148 -2.3040569 -16.151155
10.907341 -2.4799929 -15.488607
11.311465 -2.6373558 -14.809411
11.696554 -2.7665312 -14.048636
12.045182 -2.8274726 -13.263327
12.366803 -2.8441578 -12.459513
12.694887 -2.8521678 -11.633543
13.002046 -2.8455822 -10.670699
13.291233 -2.8199005 -9.6676072
13.590377 -2.7854044 -8.6375875
13.885075 -2.7373709 -7.6432849
14.124794 -2.688504 -6.6880642
14.32808 -2.6506445 -5.6942509
14.500424 -2.6180005 -4.744126
14.6119 -2.5985189 -3.877691
14.672706 -2.6032012 -3.0898995
14.720493 -2.6132506 -2.340855
14.750657 -2.627495 -1.6101611
14.746218 -2.6612988 -0.93854597
14.71057 -2.7136777 -0.34462097
14.664955 -2.7707947 0.25369999
14.59714 -2.8422365 0.82642618
7.4674144 -0.62122742 -20.45132
7.8321931 -0.7482937 -20.009882
8.2092892 -0.87499581 -19.542746
8.5981336 -1.0190341 -19.029627
8.9693979 -1.1688622 -18.513185
9.3603749 -1.321524 -17.966175
9.7478306 -1.4775652 -17.412787
10.129497 -1.6388175 -16.863585
10.525655 -1.8138222 -16.274171
10.960003 -1.9763942 -15.608881
11.40427 -2.1244651 -14.915429
11.826346 -2.273898 -14.143477
[...]
POINT_DATA 900
VECTORS normals float
0.57735793 -0.61704835 -0.53470474
0.57939733 -0.63625626 -0.50938856
0.5900041 -0.6503247 -0.47851117
0.59509904 -0.66092739 -0.45720031
0.60913983 -0.65840618 -0.44209724
0.6264864 -0.66408652 -0.40804888
0.63400679 -0.66923498 -0.38750476
0.6536126 -0.66636396 -0.358817
0.6612079 -0.67109923 -0.33530575
0.66786905 -0.67700962 -0.3092069
0.6746044 -0.68375192 -0.27819456
0.683582 -0.68824632 -0.24296634
0.69011218 -0.69147205 -0.21356868
0.69433332 -0.69497787 -0.18683414
0.69763886 -0.69784165 -0.16222532
0.70437546 -0.69537418 -0.14251301
0.7114521 -0.69176439 -0.12368485
0.714866 -0.69117118 -0.10606128
0.71756396 -0.69061732 -0.090275565
0.71871252 -0.69067069 -0.080164197
0.71977841 -0.69062592 -0.07039089
0.71994514 -0.69136572 -0.060765378
0.72228344 -0.68958403 -0.052730381
0.72361725 -0.68885338 -0.043117203
0.72547433 -0.68745515 -0.033051681
0.72484285 -0.68847388 -0.024628575
0.72468273 -0.68877516 -0.020584473
0.72360188 -0.69009342 -0.013091557
0.72451852 -0.68923043 -0.0058596192
0.72632595 -0.68734979 0.00093659311
0.62088646 -0.53154043 -0.57616384
0.62328785 -0.5531381 -0.55276622
0.62330168 -0.58477994 -0.51916033
0.63649723 -0.59627571 -0.48921013
0.64762687 -0.60628146 -0.46152165
0.64724641 -0.62336566 -0.43873379
0.6631801 -0.63091047 -0.40267124
0.67319237 -0.6345581 -0.37966835
0.68734589 -0.63402615 -0.35435358
0.69357872 -0.64151708 -0.3277261
0.6971009 -0.65227882 -0.29762842
0.70387961 -0.65874738 -0.26571673
0.70820767 -0.66633378 -0.23332638
0.71029764 -0.67320696 -0.20559585
0.71088952 -0.68144651 -0.17397339
0.71527948 -0.68303321 -0.14778668
0.71720135 -0.68465497 -0.12988374
0.72128702 -0.68391766 -0.10955216
0.72233785 -0.68490127 -0.095594318
0.72256544 -0.68645022 -0.081763604
0.72111785 -0.68936518 -0.069026814
0.72315447 -0.68811407 -0.059553603
0.72512005 -0.68656274 -0.053221314
0.72501712 -0.68738507 -0.043034204
0.7260881 -0.68676265 -0.033957757
0.72723049 -0.68582442 -0.027940568
0.72711044 -0.68622211 -0.020239261
0.72671914 -0.68682375 -0.012346294
0.72607565 -0.68759607 -0.005078356
0.72724291 -0.68637718 0.0020296492
0.6626458 -0.43259686 -0.61135955
0.6689602 -0.4580319 -0.58540501
0.66925345 -0.48680769 -0.5613538
0.6822172 -0.50649272 -0.52729956
0.68607112 -0.52254747 -0.50621197
0.69710469 -0.53634557 -0.47579248
0.70379845 -0.54607479 -0.45438978
0.71126816 -0.56976884 -0.41165651
0.71555209 -0.58140867 -0.38723271
0.72107663 -0.59685558 -0.35186917
0.72679766 -0.60853406 -0.31851445
0.72763262 -0.62431181 -0.28422797
0.72826018 -0.63786726 -0.2505244
0.72485965 -0.65323214 -0.21878359
0.72490822 -0.66425558 -0.18240778
0.72506852 -0.67064354 -0.1565659
0.72330014 -0.67759724 -0.13303717
0.7260513 -0.67849081 -0.11180218
0.72636391 -0.6800776 -0.099448116
0.72629246 -0.68172846 -0.088008981
0.72605024 -0.68370916 -0.073435978
0.72525744 -0.68564029 -0.062442359
0.72452036 -0.68730328 -0.051811693
0.72493611 -0.68741649 -0.043888535
0.72493656 -0.68786321 -0.036210439
0.7285302 -0.68444977 -0.027789698
0.73120365 -0.6819125 -0.018345715
0.73148755 -0.68175591 -0.011612009
0.73098526 -0.68235566 -0.0071618762
0.73106134 -0.68230331 0.0033942442
0.69312165 -0.3598433 -0.624576
0.70222936 -0.36852805 -0.60914777
0.7044173 -0.38607138 -0.59560486
0.71972805 -0.39411273 -0.57154763
0.72281678 -0.42562346 -0.54440846
0.73107827 -0.45310371 -0.51011919
0.74186752 -0.46719497 -0.48100046
0.74373038 -0.48964292 -0.45509881
0.74832367 -0.52124835 -0.41025825
0.74951645 -0.54555796 -0.37495548
0.75073479 -0.56847517 -0.3365015
0.7505519 -0.5871889 -0.30311884
0.74755087 -0.60831161 -0.26669213
0.74304161 -0.62645724 -0.23545805
0.74104589 -0.6395695 -0.20445502
0.73723374 -0.6538286 -0.17027794
0.73494486 -0.66367338 -0.13926123
0.73445223 -0.66859987 -0.11642221
0.73420218 -0.67120073 -0.10216035
0.73200636 -0.67509529 -0.091722617
0.73019894 -0.67902221 -0.075751891
0.72827079 -0.68233669 -0.063547573
0.72882387 -0.68261498 -0.053409312
0.72817876 -0.68392204 -0.044792108
0.72878309 -0.68382966 -0.035386457
0.73086845 -0.68209476 -0.024042817
0.73394376 -0.67904731 -0.014876125
0.73451214 -0.67849609 -0.011617734
0.73596895 -0.676986 -0.0062983219
0.7367368 -0.67617769 0.0016176148
0.71654399 -0.29918253 -0.63012262
0.72113193 -0.30666714 -0.62122781
0.72796835 -0.31371074 -0.60962911
0.737561 -0.33056501 -0.5888383
0.74426646 -0.35120424 -0.56808716
0.75077447 -0.37943027 -0.54071283
0.75805686 -0.40085505 -0.51445604
0.76251287 -0.43544224 -0.47850202
0.76884599 -0.46233038 -0.44173121
0.77053797 -0.49894546 -0.39664174
0.77588646 -0.51849591 -0.35939141
0.77313377 -0.54795756 -0.31938486
0.77208008 -0.56750455 -0.28606106
0.7645471 -0.5898725 -0.25984257
0.75629838 -0.6181577 -0.21422841
0.75450443 -0.63019883 -0.183228
0.74863352 -0.64505804 -0.15312734
0.74701833 -0.65309788 -0.12420452
0.74141216 -0.66201959 -0.10971812
0.73720363 -0.66881105 -0.096034248
0.73712581 -0.67067516 -0.082706551
0.73638837 -0.67324192 -0.066914014
0.73531134 -0.67544808 -0.055561839
0.73344254 -0.67827269 -0.0448129
0.73341085 -0.67897097 -0.033270767
0.73482217 -0.67794 -0.020826362
0.73627846 -0.67651937 -0.014682182
0.73783665 -0.67492269 -0.0087425013
0.73866809 -0.6740643 -0.0026008421
0.73917588 -0.67350655 0.0028189352
0.7294549 -0.25263684 -0.63566515
0.73187234 -0.26213731 -0.6290047
0.73809839 -0.27251573 -0.61720818
0.74541826 -0.28775821 -0.60128764
0.75537742 -0.30189375 -0.58160564
0.76066388 -0.3269891 -0.56077499
0.76298835 -0.3581476 -0.53812552
0.76969639 -0.38909695 -0.50613341
0.77783147 -0.41237927 -0.47425894
0.78532082 -0.45029124 -0.42486352
0.7878854 -0.48543698 -0.37892947
0.79110512 -0.50642357 -0.34305662
0.78873376 -0.53110873 -0.30955221
0.78047126 -0.55931476 -0.2793414
0.77800819 -0.58103209 -0.23896645
0.77294203 -0.60321794 -0.19669455
0.76192844 -0.62698424 -0.16234476
0.76048548 -0.63560069 -0.13294212
0.75154792 -0.64928103 -0.11666134
0.74812156 -0.65553477 -0.10289946
0.74634353 -0.65963529 -0.08861501
0.74456959 -0.66346984 -0.073647111
0.74179211 -0.66780103 -0.061532546
0.7406845 -0.67003893 -0.049338771
0.73935405 -0.67241216 -0.034892251
0.74000522 -0.67232761 -0.019179552
0.74019827 -0.67227129 -0.012563393
0.74019389 -0.67235693 -0.0070113885
0.74093047 -0.67158173 -0.0001170953
0.7423218 -0.6700314 0.0040330461
0.73504056 -0.21515097 -0.64298168
0.73797813 -0.22395353 -0.63657921
0.74460537 -0.23607015 -0.62436667
0.75079973 -0.2527045 -0.61027879
0.75923311 -0.26764183 -0.59323936
0.76787374 -0.27715834 -0.57754062
0.76979442 -0.30384103 -0.56133518
0.77867864 -0.32753392 -0.53514588
0.78561386 -0.36889288 -0.49671813
0.79454918 -0.40893139 -0.44885044
0.79961978 -0.44634123 -0.4017309
0.79853663 -0.48201463 -0.36055671
0.80115078 -0.50165112 -0.32634887
0.79711212 -0.52768946 -0.29352359
0.79374292 -0.5513112 -0.2569594
0.78921118 -0.577232 -0.20963999
0.78044259 -0.59991978 -0.17608413
0.77907288 -0.6099059 -0.14512147
0.76708547 -0.62903147 -0.12609242
0.75988305 -0.64002066 -0.11380383
0.755434 -0.64835086 -0.094660634
0.7514563 -0.65505822 -0.078817308
0.7508432 -0.6572231 -0.065515497
0.74774145 -0.66190593 -0.052566759
0.74671269 -0.66420477 -0.035386241
0.74625812 -0.66522699 -0.023913824
0.74416178 -0.66787393 -0.012948012
0.74424137 -0.66788729 -0.005598902
0.74432083 -0.66782157 0.00092542621
0.7458711 -0.66606267 0.0060677539
0.73863163 -0.18595996 -0.64795232
0.74368621 -0.18913092 -0.64121784
0.74982625 -0.20367628 -0.62950501
0.75773683 -0.21383998 -0.61652847
0.76486719 -0.22661063 -0.60301393
0.77261298 -0.23964394 -0.58791153
0.77529636 -0.25708515 -0.57690795
0.78225692 -0.28371109 -0.55460088
0.79020305 -0.32339905 -0.52056911
0.80131935 -0.35941545 -0.47823407
0.80675645 -0.41191889 -0.42363528
0.80814645 -0.44914947 -0.38100402
0.8092722 -0.47786769 -0.34164451
0.80783062 -0.50228185 -0.30841957
0.80896782 -0.52058158 -0.27306753
0.80452431 -0.54964676 -0.22500905
0.79678035 -0.57194937 -0.19497432
0.79478426 -0.58444655 -0.16352436
0.7831422 -0.60532449 -0.14237472
0.76905688 -0.62740594 -0.12212003
0.76487658 -0.63617862 -0.10119578
0.76218834 -0.64146831 -0.087105295
0.75856847 -0.64767962 -0.071309076
0.75521261 -0.6532767 -0.053697997
0.7549337 -0.65470856 -0.037839353
0.75432865 -0.65597261 -0.026233836
0.75145431 -0.65961499 -0.014982775
0.74937516 -0.66212455 -0.0052867904
0.74941835 -0.66208376 0.0041524514
0.74899978 -0.6625183 0.0082963244
0.74175313 -0.16457709 -0.65016665
0.74814721 -0.16676462 -0.64223463
0.75253007 -0.17389992 -0.6351829
0.7613006 -0.18193797 -0.62235036
0.76841753 -0.18874542 -0.61148153
0.77413195 -0.20473919 -0.59900048
0.77935471 -0.22060737 -0.5864628
0.78465237 -0.24296235 -0.57034196
0.79197165 -0.27164419 -0.54680008
0.80656008 -0.31331855 -0.50129065
0.81380721 -0.36939424 -0.44862649
0.81974059 -0.4104104 -0.3994855
0.81968833 -0.44498618 -0.36069147
0.81899407 -0.4765411 -0.31962055
0.82254292 -0.49144748 -0.28618616
0.82162519 -0.51501047 -0.24432821
0.8158545 -0.53607018 -0.21681834
0.80939973 -0.55769129 -0.18399046
0.79470203 -0.58514348 -0.16141808
0.78220531 -0.60713035 -0.13981273
0.77271989 -0.62441044 -0.11408581
0.76801414 -0.63349328 -0.094024103
0.76590203 -0.63837891 -0.076592808
0.76494604 -0.6415866 -0.056781956
0.76320433 -0.64463248 -0.04436353
0.76365291 -0.64492882 -0.030017564
0.76182855 -0.64751009 -0.018653292
0.75880168 -0.65125512 -0.0093154376
0.75740587 -0.65294376 0.00089177158
0.75652056 -0.65388622 0.010462017
0.74400905 -0.14288787 -0.65271249
0.74963056 -0.15214369 -0.64413222
0.75146532 -0.15864024 -0.64041638
0.76334211 -0.15793582 -0.62639053
0.76849855 -0.16518217 -0.61816246
0.77374421 -0.17563829 -0.60866336
0.7792644 -0.19370871 -0.59600666
0.78647059 -0.20825072 -0.58145992
0.79333356 -0.23077773 -0.56335025
0.80535796 -0.26803825 -0.52872871
0.81793599 -0.31090499 -0.48406487
0.82876147 -0.35742358 -0.43058426
0.8316356 -0.40411256 -0.38088747
0.83306107 -0.43505366 -0.3416688
0.83468638 -0.46250572 -0.29897677
0.83374966 -0.48315567 -0.26724914
0.82975948 -0.5053816 -0.23683042
0.8225271 -0.53188483 -0.20136459
0.8068488 -0.56321433 -0.17828244
0.79093021 -0.59183702 -0.15542956
0.78007101 -0.61317637 -0.12451485
0.77674216 -0.62149 -0.10208718
0.77575349 -0.62559223 -0.082709625
0.77223738 -0.63227135 -0.062308696
0.77339367 -0.63215039 -0.047414329
0.77308243 -0.63346743 -0.032597163
0.77183101 -0.63543243 -0.022416895
0.76932453 -0.6387148 -0.013533692
0.76684821 -0.64182348 -0.0025367371
0.76465177 -0.64436147 0.010293797
0.74438256 -0.12102618 -0.6566942
0.75012344 -0.12994074 -0.64840592
0.75693862 -0.13620645 -0.63913357
0.76528267 -0.13909777 -0.62848567
0.76967182 -0.14203501 -0.62243984
0.7732807 -0.15479276 -0.61487898
0.78087451 -0.16520272 -0.60244756
0.7874894 -0.18119387 -0.58909187
0.79475426 -0.1939045 -0.57512321
0.80674605 -0.2191671 -0.54875003
0.81844907 -0.26153772 -0.51160448
0.82782143 -0.31582012 -0.46364786
0.83789314 -0.3710732 -0.40029959
0.83946954 -0.40823271 -0.35865992
0.84148805 -0.43590085 -0.31919948
0.84396911 -0.45614659 -0.28221698
0.83888256 -0.48183094 -0.25320939
0.83419076 -0.50440536 -0.22293725
0.82028407 -0.53691445 -0.19712157
0.80271517 -0.57136253 -0.17086022
0.79625316 -0.58839527 -0.14061263
0.78615091 -0.60794155 -0.11123765
0.78300356 -0.61585588 -0.087332448
0.78351584 -0.61740956 -0.070059658
0.78116534 -0.62225503 -0.050787774
0.78048187 -0.62413223 -0.036152648
0.78147982 -0.62336462 -0.026567748
0.77939132 -0.62628792 -0.017681016
0.77607407 -0.63060415 -0.0068882749
0.7753467 -0.63149082 0.0075394028
0.7461345 -0.091468362 -0.65948226
0.75376848 -0.098877925 -0.64965855
0.75944775 -0.1050581 -0.64202952
0.76674935 -0.11496844 -0.63156765
0.77027681 -0.12502491 -0.62533384
0.77459974 -0.13093865 -0.61874899
0.78343094 -0.13906484 -0.60572018
0.78821492 -0.15224742 -0.59627004
0.79650115 -0.16327923 -0.58217335
0.80602418 -0.18095295 -0.5635433
0.81607541 -0.21597414 -0.53607471
0.83108124 -0.26118897 -0.49100335
0.84011912 -0.3203057 -0.43772609
0.84311701 -0.38350052 -0.37693641
0.84894588 -0.41081314 -0.33245068
0.84961683 -0.43497985 -0.29823442
0.84564318 -0.4629662 -0.26561232
0.84111314 -0.48352066 -0.24235606
0.82952244 -0.51325869 -0.22013187
0.81794683 -0.54036869 -0.19739469
0.80532926 -0.57171009 -0.1568195
0.79686129 -0.59144537 -0.12330638
0.79274062 -0.60256322 -0.092086243
0.79025218 -0.60824005 -0.0744684
0.790425 -0.61010733 -0.054748173
0.78997499 -0.61178164 -0.040776826
0.7882178 -0.61461619 -0.030978068
0.7871891 -0.61635257 -0.021043763
0.78528996 -0.61904542 -0.01012126
0.7855146 -0.61880279 0.0070655127
0.74583707 -0.059440751 -0.66347107
0.75583986 -0.063840299 -0.65163681
0.76194473 -0.072836305 -0.6435333
0.76852438 -0.080293924 -0.63476229
0.77050273 -0.093299023 -0.63057183
0.77779214 -0.10139894 -0.62028835
0.78544105 -0.11190966 -0.60873524
0.79115814 -0.12139217 -0.59944369
0.7997026 -0.13209555 -0.58568465
0.80647796 -0.14666688 -0.57278454
0.81382155 -0.17132981 -0.55528424
0.82853109 -0.21058654 -0.5188348
0.84565735 -0.26130692 -0.46538409
0.84874814 -0.3391473 -0.4057163
0.85194845 -0.38084261 -0.35936436
0.85401589 -0.41634139 -0.31195626
0.85089177 -0.44559697 -0.27825623
0.84518364 -0.46889553 -0.25651823
0.83829816 -0.49201106 -0.23490702
0.82831019 -0.51696368 -0.21598791
0.82231219 -0.54069312 -0.17735165
0.81127971 -0.56819761 -0.13775599
0.80616563 -0.58255879 -0.10354821
0.80291445 -0.59075901 -0.079575021
0.80069749 -0.59586246 -0.061898742
0.79879398 -0.59995043 -0.04458312
0.79730267 -0.60270969 -0.032395565
0.79545162 -0.60556309 -0.023453556
0.79674948 -0.60423372 -0.0095852809
0.79452309 -0.60721406 0.0049129322
0.74887773 -0.0062769999 -0.66267846
0.75562554 -0.02232224 -0.65462337
0.76372 -0.033533765 -0.64467608
0.77129502 -0.042984009 -0.6350247
0.77482974 -0.051752119 -0.63004809
0.78095194 -0.06203269 -0.62150303
0.78801049 -0.073564334 -0.61125097
0.793569 -0.081382519 -0.60301337
0.80199251 -0.090696257 -0.59040851
0.80665527 -0.10718733 -0.58122126
0.8147076 -0.1224026 -0.56680608
0.82636051 -0.15692758 -0.54083458
0.84233489 -0.20773535 -0.49731073
0.85315371 -0.27898028 -0.44079332
0.85642645 -0.33676964 -0.39130543
0.85899979 -0.39223856 -0.32904145
0.85694273 -0.42599009 -0.29014066
0.85371318 -0.44402682 -0.27205513
0.84863508 -0.46425073 -0.25355425
0.83904103 -0.49255598 -0.23108169
0.83459088 -0.51262019 -0.2016894
0.82469702 -0.54249752 -0.15991019
0.81560766 -0.56617875 -0.11927184
0.81246781 -0.57613861 -0.089220885
0.81115599 -0.58123054 -0.064784381
0.8084869 -0.58652219 -0.048380242
0.80564939 -0.59131484 -0.035718675
0.80459421 -0.59329508 -0.025082076
0.80851595 -0.5883465 -0.012261675
0.80645188 -0.59127018 0.0059114909
0.74455602 0.03373379 -0.6667071
0.7530754 0.019278835 -0.65765171
0.76044618 0.0076006304 -0.64935648
0.76964234 -0.0027436194 -0.63846938
0.7770365 -0.013054976 -0.62932015
0.78402308 -0.02040423 -0.62039623
0.78987176 -0.025829492 -0.61272787
0.79685043 -0.034468849 -0.60319259
0.80297326 -0.047448423 -0.59412338
0.80709821 -0.057902913 -0.58757104
0.81311709 -0.076715172 -0.57702286
0.82353945 -0.1079744 -0.55688805
0.83836076 -0.13905968 -0.52708029
0.85606341 -0.20786981 -0.47322889
0.86319794 -0.2722221 -0.42518754
0.86517393 -0.35938082 -0.34974205
0.86500295 -0.39232758 -0.3128082
0.86103119 -0.41915685 -0.28798059
0.8543216 -0.44795558 -0.26357239
0.8495752 -0.46511629 -0.24877464
0.84340093 -0.49091376 -0.21835419
0.83576032 -0.51626325 -0.18702123
0.8303554 -0.53651903 -0.15052321
0.82431721 -0.55718047 -0.10025499
0.82115254 -0.56591459 -0.073818606
0.8175464 -0.57313275 -0.05600661
0.81644527 -0.57589834 -0.041931105
0.81551107 -0.57799437 -0.029397204
0.81844465 -0.57425695 -0.019424356
0.82195015 -0.56954686 0.0037844998
0.73726373 0.073187253 -0.67162922
0.74617637 0.058426574 -0.66317958
0.75308049 0.048693856 -0.65612398
0.76321113 0.037492477 -0.64506053
0.77298142 0.020791683 -0.63408787
0.78340153 0.0078540639 -0.62146629
0.78926902 0.00050282373 -0.61404735
0.79697592 -0.0026385002 -0.60400532
0.80305744 -0.010012917 -0.5958175
0.80824083 -0.018090324 -0.58857413
0.81044292 -0.030951071 -0.5849994
0.8169741 -0.045682717 -0.57486208
0.82866781 -0.075744429 -0.55459213
0.84794624 -0.13360426 -0.51296888
0.86194902 -0.20104733 -0.46542868
0.87165328 -0.28914547 -0.39574672
0.87378795 -0.34742632 -0.34027866
0.87383126 -0.37055367 -0.31481568
0.86884737 -0.41098523 -0.27603513
0.86190903 -0.43387525 -0.26242158
0.8537057 -0.45898948 -0.24599843
0.84765803 -0.4840849 -0.21711211
0.84471399 -0.50614104 -0.17401016
0.83868606 -0.53115305 -0.12034174
0.8319627 -0.54753892 -0.089661617
0.82845016 -0.55620552 -0.065618204
0.82806205 -0.55866859 -0.046932478
0.82788668 -0.55993551 -0.03280051
0.83009313 -0.55733362 -0.018017624
0.83927375 -0.54363338 0.0090731589
0.72089617 0.11030688 -0.68420837
0.73416086 0.090251471 -0.6729506
0.740974 0.075363407 -0.66729145
0.75245697 0.063738454 -0.65555009
0.76387544 0.049512567 -0.64346159
0.77696751 0.03004775 -0.6288232
0.78575681 0.023020206 -0.61810703
0.79423678 0.01447597 -0.60743591
0.80182485 0.0090217251 -0.59749101
0.80690336 0.0025503942 -0.59067796
0.80977896 -0.004219931 -0.58671989
0.81301147 -0.016973306 -0.58200023
0.82105094 -0.034064483 -0.56983766
0.83690816 -0.062070136 -0.5438125
0.85399886 -0.12586853 -0.50481983
0.87379495 -0.18503776 -0.44971482
0.88362435 -0.27247241 -0.38074506
0.88330326 -0.3279006 -0.33504707
0.88048837 -0.37120081 -0.29487317
0.8729026 -0.40104017 -0.27786298
0.86660257 -0.4221159 -0.26611681
0.85998104 -0.45292493 -0.23514171
0.85569427 -0.47924097 -0.1952317
0.85169209 -0.50337207 -0.14572966
0.84636673 -0.52199321 -0.10576599
0.84315235 -0.53294939 -0.071127066
0.84120353 -0.53803857 -0.053769151
0.84094398 -0.53995784 -0.035478786
0.84473141 -0.53495416 -0.015902774
0.85506857 -0.51840969 0.010446915
0.69916924 0.15052805 -0.69893038
0.71819871 0.12216247 -0.68503062
0.72744899 0.10577409 -0.67796004
0.74324671 0.086877782 -0.66335253
0.75410734 0.072832232 -0.65270023
0.76685615 0.063485728 -0.63867144
0.77826107 0.04383722 -0.62640881
0.79043604 0.029747774 -0.61182181
0.79786474 0.022935082 -0.60240006
0.8043741 0.013950529 -0.59395933
0.80669118 0.0069354627 -0.59093251
0.80954639 -0.0019874706 -0.58705254
0.81566621 -0.010160593 -0.57843357
0.828276 -0.029856861 -0.55952429
0.84411498 -0.067402201 -0.53190868
0.86695157 -0.10857615 -0.48642182
0.88529191 -0.16806469 -0.43360408
0.89326347 -0.26260148 -0.36485728
0.88727477 -0.33060695 -0.32162482
0.88330121 -0.36247181 -0.29730988
0.87892843 -0.38635011 -0.27967554
0.87713032 -0.40683062 -0.25520826
0.87345457 -0.43321022 -0.22227467
0.87026173 -0.461714 -0.17165285
0.86775847 -0.48080229 -0.12579503
0.86419279 -0.49620211 -0.083392347
0.86291962 -0.50212795 -0.056896947
0.86647476 -0.49804779 -0.034203717
0.86991066 -0.49312464 -0.0091395988
0.87686933 -0.48010731 0.024436605
0.66941639 0.20943177 -0.71275524
0.69202333 0.17250743 -0.70095998
0.71220742 0.14424444 -0.68698917
0.73050483 0.12240032 -0.67184883
0.74667791 0.10396381 -0.65701113
0.75721014 0.089910779 -0.64695352
0.76957805 0.070329182 -0.63466797
0.78463401 0.052737416 -0.61771209
0.7932829 0.036254437 -0.60777286
0.80056503 0.025097758 -0.59872008
0.80341034 0.013753573 -0.59526689
0.80591222 0.0033480907 -0.59202557
0.81035305 -0.0046621361 -0.58592338
0.81899812 -0.013678518 -0.57363313
0.83289956 -0.029087038 -0.55265927
0.85482357 -0.064949908 -0.51483801
0.87414291 -0.10902444 -0.47327354
0.89748488 -0.16174634 -0.41031575
0.90542025 -0.22205729 -0.36180759
0.90120764 -0.29300897 -0.31932824
0.89500789 -0.32633794 -0.30407965
0.88921763 -0.36489934 -0.27593563
0.88948449 -0.38591259 -0.24472191
0.89102758 -0.40874353 -0.19748058
0.88956664 -0.43384318 -0.14300802
0.88863982 -0.44849221 -0.095781053
0.88665145 -0.45822044 -0.062315581
0.88853162 -0.45769259 -0.032078958
0.89518092 -0.44568797 -0.0036546078