# vtk DataFile Version 2.0
Grain example
ASCII
DATASET UNSTRUCTURED_GRID
POINTS 900 float
-16.617031 -14.24135 -6.0680545
-17.252074 -14.262806 -5.1394803
-17.876874 -14.306361 -4.104977
-18.436516 -14.32773 -3.0645933
-18.948506 -14.334529 -2.0439276
-19.271223 -14.331784 -1.2435514
-19.497435 -14.286436 -0.63859438
-19.596519 -14.258669 -0.23013375
-19.605069 -14.25707 0.11822288
-19.588466 -14.256632 0.48651943
-19.535078 -14.256411 0.86158482
-19.467603 -14.245866 1.2384722
-19.371379 -14.265365 1.642685
-19.23795 -14.31478 2.0862905
-19.010099 -14.384984 2.5946305
-18.559031 -14.418614 3.2905254
-18.078026 -14.44507 4.001518
-17.473395 -14.4664 4.7567756
-16.78497 -14.47331 5.5602791
-16.090512 -14.455197 6.2759523
-15.362084 -14.426545 6.9743845
-14.639094 -14.387035 7.620618
-13.925278 -14.310028 8.1825749
-13.222534 -14.232352 8.6620436
-12.549916 -14.159867 9.1014168
-11.908208 -14.086885 9.512665
-11.29882 -14.021193 9.9011941
-10.71536 -13.953047 10.272362
-10.113756 -13.866428 10.661908
-9.5104365 -13.765419 11.05221
-16.76555 -13.976187 -5.9986867
-17.406202 -13.993004 -5.0561126
-18.033016 -14.03247 -3.948832
-18.586383 -14.054403 -2.8723929
-19.059692 -14.067447 -1.872318
-19.358559 -14.052399 -1.0841192
-19.540692 -14.012227 -0.56819399
-19.600133 -13.989834 -0.18337728
-19.608375 -13.983776 0.17391025
-19.60748 -13.975499 0.53744028
-19.544855 -13.966276 0.92211563
-19.478726 -13.957904 1.3056418
-19.388749 -13.981652 1.7059412
-19.264823 -14.031755 2.1398496
-19.026914 -14.088004 2.64478
-18.603918 -14.13836 3.3272244
-18.121251 -14.170203 4.0500055
-17.500952 -14.198275 4.8579908
-16.803069 -14.195983 5.6704068
-16.095642 -14.183398 6.4687025
-15.380056 -14.160055 7.1821193
-14.623586 -14.099825 7.8572598
-13.899144 -14.014815 8.4502663
-13.188061 -13.931232 8.9782278
-12.529892 -13.864288 9.409344
-11.894051 -13.806066 9.8220903
-11.295168 -13.728045 10.205073
-10.690975 -13.624903 10.596878
-10.075714 -13.516656 10.998644
-9.4794443 -13.417237 11.391853
-16.917357 -13.694584 -5.9264429
-17.55445 -13.702553 -4.9685826
-18.168606 -13.742281 -3.7914324
-18.729839 -13.761996 -2.6928936
-19.157024 -13.776042 -1.73332
-19.416354 -13.761196 -1.0017301
-19.563546 -13.725189 -0.52831725
-19.601853 -13.714701 -0.13372155
-19.604282 -13.697879 0.23200568
-19.59929 -13.683347 0.59649042
-19.549991 -13.667599 0.97743438
-19.484718 -13.659045 1.3613009
-19.397383 -13.68518 1.7699749
-19.271259 -13.730235 2.1893385
-19.043313 -13.790402 2.672741
-18.638644 -13.840231 3.3507076
-18.156024 -13.884624 4.0944752
-17.541543 -13.915901 4.9360728
-16.822108 -13.916827 5.7768801
-16.108586 -13.90293 6.5966292
-15.374722 -13.875547 7.4045447
-14.60541 -13.803467 8.0890158
-13.878565 -13.728602 8.6947722
-13.174539 -13.645767 9.2564864
-12.544897 -13.57871 9.6936511
-11.898126 -13.485554 10.12113
-11.265283 -13.376271 10.536857
-10.653023 -13.271442 10.937222
-10.047956 -13.166169 11.330528
-9.4613613 -13.052829 11.73121
-17.067812 -13.403064 -5.8394986
-17.692605 -13.407546 -4.8409711
-18.295591 -13.439966 -3.651806
-18.869667 -13.464453 -2.5092306
-19.217747 -13.491785 -1.6512675
-19.452765 -13.464451 -0.95299116
-19.576063 -13.42815 -0.48231989
-19.595928 -13.40532 -0.094956904
-19.592583 -13.382569 0.27096557
-19.586646 -13.35939 0.6334171
-19.557103 -13.345173 1.0163107
-19.487556 -13.352605 1.4155129
-19.391339 -13.381051 1.8216308
-19.264353 -13.428143 2.2249759
-19.055065 -13.487316 2.7030561
-18.67436 -13.543761 3.3792228
-18.164174 -13.587209 4.1455973
-17.555524 -13.627581 5.0151462
-16.850648 -13.626351 5.8641861
-16.112028 -13.612713 6.7219525
-15.352605 -13.570354 7.5702454
-14.607148 -13.516039 8.3006807
-13.875447 -13.442425 8.9201972
-13.19503 -13.355868 9.4643119
-12.534178 -13.24073 9.9761665
-11.886828 -13.129025 10.433147
-11.250871 -13.013012 10.877418
-10.639892 -12.901993 11.296562
-10.037541 -12.77991 11.707755
-9.4538484 -12.653251 12.099055
-17.204669 -13.091575 -5.7539043
-17.818365 -13.083948 -4.7146678
-18.421131 -13.114643 -3.5299831
-18.93429 -13.150821 -2.435496
-19.262427 -13.170524 -1.5947511
-19.48263 -13.135982 -0.90787116
-19.579538 -13.093936 -0.43551108
-19.582694 -13.073232 -0.058457394
-19.579579 -13.058097 0.30628544
-19.57127 -13.03622 0.66974558
-19.562028 -13.017686 1.0406161
-19.486219 -13.034741 1.4375506
-19.381852 -13.072416 1.8386648
-19.257111 -13.114511 2.2519875
-19.064983 -13.173371 2.7351589
-18.715819 -13.240235 3.3956206
-18.168952 -13.288018 4.1993091
-17.551068 -13.323861 5.0794207
-16.864755 -13.327659 5.968338
-16.123762 -13.307791 6.8185948
-15.360883 -13.264537 7.6715811
-14.61994 -13.216062 8.4713159
-13.897748 -13.13654 9.1205202
-13.195287 -13.014178 9.6972387
-12.511012 -12.87973 10.26099
-11.873992 -12.755506 10.772562
-11.256291 -12.621136 11.233975
-10.647515 -12.499432 11.652775
-10.046545 -12.380727 12.061588
-9.4666006 -12.263219 12.446441
-17.326164 -12.758522 -5.6752421
-17.939048 -12.763421 -4.5855024
-18.492107 -12.777527 -3.4882109
-18.969351 -12.824068 -2.4217942
-19.297292 -12.838779 -1.5328208
-19.498414 -12.792603 -0.87227675
-19.568629 -12.755528 -0.41248878
-19.565003 -12.735202 -0.040818536
-19.559062 -12.715081 0.32919842
-19.55104 -12.699725 0.68881552
-19.533503 -12.681662 1.053121
-19.47289 -12.703414 1.4353393
-19.364301 -12.743974 1.8396563
-19.246848 -12.786407 2.250482
-19.076231 -12.839442 2.7392819
-18.745735 -12.91426 3.3963255
-18.18135 -12.981169 4.2411612
-17.539246 -13.006062 5.1526115
-16.883892 -13.01335 6.0486408
-16.14034 -12.980176 6.9040851
-15.394358 -12.934338 7.7461654
-14.660373 -12.87107 8.5765306
-13.909384 -12.777374 9.3714229
-13.195433 -12.65205 9.9858065
-12.514127 -12.501517 10.542883
-11.869875 -12.35529 11.059067
-11.266225 -12.228331 11.534204
-10.690557 -12.107393 11.973099
-10.080011 -11.987225 12.389307
-9.4831443 -11.860521 12.796386
-17.430213 -12.411729 -5.6063461
-17.997649 -12.427617 -4.5317567
-18.553788 -12.447568 -3.4171298
-18.979399 -12.476613 -2.3813818
-19.314198 -12.479599 -1.4542822
-19.484596 -12.438525 -0.82999591
-19.543562 -12.402003 -0.37932117
-19.541838 -12.392855 -0.018714613
-19.537467 -12.384379 0.34108248
-19.515964 -12.358864 0.70349537
-19.484105 -12.34812 1.062444
-19.44283 -12.36691 1.4350935
-19.347859 -12.40501 1.8358925
-19.238508 -12.447656 2.2446671
-19.071023 -12.493433 2.73867
-18.749578 -12.56265 3.390282
-18.192395 -12.622269 4.2541716
-17.540061 -12.659094 5.1957541
-16.879255 -12.655302 6.1200392
-16.175816 -12.623941 6.9869701
-15.43604 -12.572214 7.850638
-14.68834 -12.485662 8.706795
-13.93159 -12.382063 9.5376256
-13.203979 -12.255512 10.252712
-12.542677 -12.110958 10.792597
-11.889305 -11.97068 11.321341
-11.285437 -11.843188 11.796855
-10.70412 -11.712802 12.253303
-10.110363 -11.582216 12.726143
-9.5239719 -11.473276 13.122717
-17.48653 -12.06979 -5.5901797
-18.05239 -12.092154 -4.480768
-18.587133 -12.10767 -3.336294
-18.982648 -12.130203 -2.3042078
-19.307595 -12.120089 -1.3782082
-19.457737 -12.074684 -0.7835233
-19.508338 -12.042607 -0.34989861
-19.502092 -12.034732 0.0096411807
-19.480431 -12.010866 0.36586273
-19.454147 -11.996355 0.72068207
-19.414132 -11.990367 1.0736748
-19.374182 -12.014823 1.4514639
-19.322187 -12.045023 1.8322423
-19.212222 -12.088121 2.2516917
-19.061711 -12.134254 2.7421434
-18.75148 -12.182191 3.4122857
-18.214705 -12.236519 4.2820969
-17.550578 -12.255508 5.2394298
-16.894426 -12.251085 6.1462298
-16.219811 -12.219479 7.0495537
-15.465347 -12.140136 7.9425695
-14.726192 -12.057801 8.8120602
-13.985457 -11.958408 9.6429144
-13.245462 -11.85179 10.421123
-12.58641 -11.728275 11.020258
-11.928661 -11.586538 11.559668
-11.29287 -11.447297 12.074451
-10.711305 -11.314355 12.533204
-10.128294 -11.195897 12.989119
-9.5692571 -11.085835 13.416002
-17.55089 -11.717756 -5.5712495
-18.117356 -11.733749 -4.4162812
-18.604668 -11.736864 -3.2656919
-18.992968 -11.74825 -2.2274165
-19.316054 -11.728041 -1.3078878
-19.444319 -11.682267 -0.74463489
-19.477939 -11.642625 -0.3354378
-19.457421 -11.606762 0.022536568
-19.431335 -11.579142 0.38559297
-19.393478 -11.574599 0.73404838
-19.35391 -11.573482 1.0893894
-19.314395 -11.601395 1.4761401
-19.275893 -11.627474 1.8694219
-19.196793 -11.666663 2.2877027
-19.052741 -11.706964 2.7899905
-18.757156 -11.742038 3.4520711
-18.23484 -11.772169 4.2957074
-17.574204 -11.772618 5.2205226
-16.908034 -11.757843 6.1429952
-16.24117 -11.720212 7.0690085
-15.513948 -11.672792 7.9904884
-14.776681 -11.610808 8.871613
-14.050117 -11.533168 9.7264868
-13.304459 -11.440014 10.530219
-12.607073 -11.316702 11.237182
-11.946486 -11.176626 11.821258
-11.291683 -11.028415 12.368754
-10.712185 -10.902471 12.82207
-10.129409 -10.780679 13.281343
-9.5716694 -10.665535 13.701919
-17.622883 -11.30569 -5.5317804
-18.174246 -11.291383 -4.324117
-18.620197 -11.30076 -3.1965733
-19.008404 -11.306588 -2.1620162
-19.302962 -11.288018 -1.2650205
-19.416522 -11.216804 -0.70755865
-19.425856 -11.158894 -0.3155838
-19.408256 -11.118519 0.044065322
-19.380023 -11.095343 0.40599794
-19.345731 -11.082522 0.76766618
-19.312647 -11.073089 1.1388468
-19.275445 -11.096325 1.5262986
-19.23808 -11.124267 1.9151252
-19.1919 -11.129368 2.3303362
-19.030395 -11.132716 2.8362785
-18.738006 -11.152716 3.4741461
-18.254741 -11.157673 4.2614705
-17.613622 -11.17222 5.1684821
-16.93665 -11.161838 6.1069576
-16.259868 -11.149966 7.0469867
-15.565293 -11.133994 8.0007909
-14.827648 -11.096054 8.9005792
-14.093756 -11.047851 9.788583
-13.344569 -10.970997 10.658498
-12.618646 -10.86464 11.427291
-11.934808 -10.732767 12.096959
-11.29008 -10.597431 12.638401
-10.707389 -10.476727 13.120705
-10.133993 -10.357431 13.559451
-9.5776636 -10.250074 13.985433
-17.684156 -10.837403 -5.4389391
-18.222138 -10.804851 -4.228144
-18.632438 -10.821837 -3.1453744
-19.004572 -10.821118 -2.1116271
-19.259449 -10.795681 -1.217975
-19.371941 -10.716598 -0.65060808
-19.385158 -10.62899 -0.25764065
-19.366385 -10.576825 0.10210764
[...]
POINT_DATA 900
VECTORS normals float
-0.71750593 -0.31575587 -0.62087315
-0.80760148 -0.21751274 -0.54814966
-0.86609985 -0.14610696 -0.47804164
-0.8974932 -0.10108682 -0.4292871
-0.92282159 -0.08707066 -0.37525859
-0.95058515 -0.093490936 -0.2960529
-0.9781414 -0.093160983 -0.18590435
-0.9928009 -0.090557099 -0.078395024
-0.99673696 -0.080486646 0.0061105518
-0.99569006 -0.080749192 0.045616655
-0.99277142 -0.070957704 0.096798335
-0.98628221 -0.061298932 0.15326394
-0.97158571 -0.065262362 0.22751269
-0.95067601 -0.081678123 0.29923871
-0.90540271 -0.11538309 0.40857394
-0.83966316 -0.15439832 0.5206985
-0.79624949 -0.19200013 0.57369217
-0.75757265 -0.23627444 0.60848835
-0.71614447 -0.28352029 0.63777217
-0.65290408 -0.3531538 0.67007362
-0.58814073 -0.42848703 0.68592226
-0.52445432 -0.49416498 0.6933604
-0.47151019 -0.53927079 0.69775724
-0.43654915 -0.57138999 0.69493764
-0.40799598 -0.59311518 0.69408477
-0.36773144 -0.63068425 0.68338201
-0.33441473 -0.65128953 0.68116719
-0.29822227 -0.6767712 0.6730856
-0.26846045 -0.68803143 0.67419711
-0.23311315 -0.70702408 0.66766399
-0.75936043 -0.26831533 -0.59277199
-0.83352325 -0.18804236 -0.51949886
-0.88007714 -0.12103562 -0.45914553
-0.90576243 -0.086847862 -0.41479135
-0.92659617 -0.076207178 -0.36825536
-0.96133242 -0.073000846 -0.26553881
-0.98299379 -0.064511997 -0.1719343
-0.99678178 -0.056310214 -0.057054668
-0.99853994 -0.051917613 0.014918102
-0.99713316 -0.041392287 0.063341404
-0.99308751 -0.0286545 0.11382496
-0.98596541 -0.028082769 0.16457084
-0.97092765 -0.042122649 0.23563783
-0.95318095 -0.043427134 0.29926603
-0.9092723 -0.076065608 0.40919178
-0.85086855 -0.11881001 0.5117684
-0.80394487 -0.16725603 0.57069963
-0.76797236 -0.20857498 0.60556992
-0.73488825 -0.25001583 0.63042156
-0.68196013 -0.31740593 0.6589263
-0.62074697 -0.39027508 0.67996953
-0.54801778 -0.46355977 0.6962678
-0.49162186 -0.51057465 0.7054229
-0.45606197 -0.54552639 0.70314183
-0.41233537 -0.58627526 0.69732407
-0.37818911 -0.60950926 0.69675781
-0.3502308 -0.63145329 0.69181293
-0.31597722 -0.64942958 0.69166438
-0.2820371 -0.6724993 0.68425124
-0.24254836 -0.69029909 0.68165787
-0.78497595 -0.23043966 -0.57507418
-0.85110634 -0.15736182 -0.50085452
-0.88947279 -0.10586627 -0.4445565
-0.90969714 -0.078202739 -0.40784242
-0.9373749 -0.06053152 -0.34302221
-0.9683813 -0.05831451 -0.24256354
-0.98930597 -0.039220712 -0.14048288
-0.9981184 -0.025374156 -0.055819445
-0.9991128 -0.0091713413 0.041103418
-0.99698984 -0.00085662048 0.077527577
-0.99214942 -0.0039812677 0.12499467
-0.98517028 -0.0040138393 0.17153254
-0.97278002 -0.011052933 0.23146678
-0.95671811 -0.023764415 0.29004434
-0.91143603 -0.058966141 0.4071945
-0.85746981 -0.091831591 0.50627313
-0.81418565 -0.13110201 0.56560939
-0.7790297 -0.17688739 0.60151773
-0.7439512 -0.22706437 0.62847306
-0.70203028 -0.27855352 0.65540936
-0.62817904 -0.36170648 0.6888828
-0.55601992 -0.45384233 0.69632535
-0.49697618 -0.51025937 0.70189034
-0.47044279 -0.53427429 0.7023066
-0.4339357 -0.5628817 0.70346571
-0.39939343 -0.58933632 0.70225892
-0.36584314 -0.61867562 0.69526921
-0.33022134 -0.63740635 0.6961803
-0.29934331 -0.65420214 0.69455967
-0.27083917 -0.68048109 0.68087563
-0.82278995 -0.19075036 -0.5353793
-0.86859776 -0.13195495 -0.4776252
-0.89663942 -0.091375023 -0.43323014
-0.91811157 -0.067013873 -0.39061526
-0.94277212 -0.045779743 -0.33028011
-0.9747215 -0.018541055 -0.22265272
-0.99362409 -0.0021224637 -0.11272384
-0.9995683 0.002672684 -0.029258654
-0.99823784 0.02332347 0.054563998
-0.99602003 0.024925485 0.085573487
-0.99194346 0.028868814 0.12334811
-0.98523867 0.022139995 0.16974857
-0.97132725 0.01314416 0.2373828
-0.95539373 0.0037919227 0.29531075
-0.91914356 -0.022793499 0.39326274
-0.86189305 -0.074983193 0.50151559
-0.81684771 -0.11574917 0.56512118
-0.78569966 -0.15856562 0.59794062
-0.75291682 -0.19572995 0.62833593
-0.71211884 -0.25949974 0.65233936
-0.65036655 -0.33955523 0.67950393
-0.58426786 -0.41384352 0.69811504
-0.52128835 -0.47391158 0.70969449
-0.48788951 -0.51326314 0.70606287
-0.44565475 -0.55184011 0.70488605
-0.42158277 -0.57500821 0.70116584
-0.38882251 -0.5935848 0.70460921
-0.35452039 -0.61665815 0.7028855
-0.32729671 -0.64245444 0.69291353
-0.29305155 -0.6737506 0.67836636
-0.83425149 -0.17571449 -0.52263646
-0.8779284 -0.12317251 -0.46267726
-0.90232296 -0.078529113 -0.42384721
-0.92122544 -0.053103874 -0.38538769
-0.94722893 -0.017399351 -0.32008533
-0.9796073 0.017617929 -0.2001478
-0.99546977 0.03428792 -0.088680757
-0.99927302 0.033244747 -0.018660457
-0.99713315 0.046487839 0.059702332
-0.9954179 0.045443131 0.08413162
-0.99065681 0.04369557 0.12918893
-0.98326024 0.039057216 0.17797144
-0.97031743 0.035341915 0.23923845
-0.95515368 0.024926167 0.29505954
-0.91955507 -0.0024282097 0.39295366
-0.87186161 -0.042988474 0.48786199
-0.82599062 -0.099021027 0.55491831
-0.79478038 -0.12903318 0.59302157
-0.76440901 -0.17304423 0.62107533
-0.72091824 -0.24155732 0.64955905
-0.6651554 -0.31485902 0.67707614
-0.60833033 -0.38733679 0.69275134
-0.54840064 -0.44898209 0.70545859
-0.51005398 -0.48744745 0.70868888
-0.47612274 -0.51720482 0.71120061
-0.45537582 -0.53594202 0.71091421
-0.41245133 -0.5688096 0.71157539
-0.37813612 -0.60025217 0.70477685
-0.34808506 -0.62681598 0.6970929
-0.3266849 -0.64888282 0.68718852
-0.85044263 -0.15551559 -0.5025557
-0.88949017 -0.097845621 -0.44635576
-0.91057849 -0.052867793 -0.40994122
-0.92663371 -0.023917979 -0.37520382
-0.95358801 0.0061781991 -0.30105107
-0.98051376 0.029557584 -0.19421408
-0.99454957 0.057816018 -0.086766699
-0.99842026 0.055510554 -0.0086927982
-0.99593579 0.067375028 0.059770531
-0.99391093 0.0703287 0.084822937
-0.98934662 0.061683878 0.13186498
-0.98415481 0.06621036 0.16448558
-0.9738493 0.057901536 0.21969285
-0.95375554 0.045268206 0.2971551
-0.93412446 0.022202352 0.3562563
-0.88284689 -0.023381265 0.46907854
-0.83509821 -0.072687197 0.54527749
-0.79997538 -0.11346899 0.5892064
-0.76748867 -0.16568864 0.61928056
-0.73747655 -0.2099143 0.64192237
-0.68535929 -0.28248955 0.67117978
-0.63202089 -0.34928763 0.69177146
-0.5668769 -0.42365923 0.70651499
-0.5406804 -0.45184497 0.70957793
-0.50460174 -0.48941088 0.71123419
-0.47553048 -0.51881539 0.71042336
-0.43704666 -0.54635088 0.71448648
-0.41434359 -0.56621233 0.71254683
-0.38862128 -0.59765629 0.70127061
-0.3689523 -0.60673016 0.70409709
-0.86820391 -0.11949304 -0.481605
-0.89964886 -0.072273995 -0.43059076
-0.91609514 -0.035086584 -0.39942287
-0.93129104 -0.0053369861 -0.36423691
-0.96003684 0.033976363 -0.27780365
-0.98344929 0.059984226 -0.17096602
-0.99586848 0.064973513 -0.063438273
-0.99735686 0.072595973 0.0030197263
-0.99404418 0.080156523 0.073831521
-0.9920795 0.084632742 0.092820041
-0.9890412 0.08673553 0.11947571
-0.98396278 0.082451283 0.15817407
-0.97377252 0.070269601 0.21640069
-0.95442171 0.060560557 0.29225265
-0.94399502 0.034836761 0.32811553
-0.89717406 0.0038878524 0.44166003
-0.83956122 -0.048929141 0.5410572
-0.80503969 -0.092487611 0.58596684
-0.77803993 -0.12128032 0.61639675
-0.75236189 -0.16591898 0.63751273
-0.7129759 -0.22212556 0.66507563
-0.67157174 -0.29188885 0.68102298
-0.61394619 -0.36590796 0.69941507
-0.57845625 -0.40439377 0.70841658
-0.53484162 -0.45123371 0.71437566
-0.49431098 -0.4781579 0.72596258
-0.46730195 -0.50730271 0.72406688
-0.43948076 -0.53296248 0.7230544
-0.41937714 -0.56146549 0.71335778
-0.39728095 -0.57658699 0.71394347
-0.87790861 -0.10266338 -0.46769295
-0.90428682 -0.059461318 -0.42276435
-0.92021633 -0.020978672 -0.39084754
-0.93539708 0.015341012 -0.35326612
-0.96394741 0.06177016 -0.25882396
-0.98650404 0.071650946 -0.14722747
-0.99504154 0.085180413 -0.051348228
-0.99560061 0.091771705 0.018904573
-0.99328831 0.091546483 0.070693502
-0.99191119 0.0884574 0.091035596
-0.98808169 0.08835167 0.12604978
-0.98362423 0.086656926 0.15803146
-0.97408008 0.070182664 0.21504045
-0.96229725 0.060983026 0.2650756
-0.94444691 0.045278765 0.32553013
-0.9024043 0.016300002 0.43058193
-0.85179561 -0.020004222 0.52349219
-0.81452774 -0.063445023 0.57664485
-0.78729768 -0.096761427 0.60893315
-0.77027611 -0.13355625 0.62356831
-0.74209572 -0.1825151 0.6449668
-0.70062595 -0.25463029 0.66654834
-0.64710929 -0.32008105 0.69195208
-0.59692048 -0.37172674 0.71098887
-0.55426292 -0.42254673 0.71711009
-0.5175987 -0.45699892 0.72335578
-0.49218411 -0.48476957 0.72301678
-0.4765207 -0.49884208 0.72393688
-0.45225659 -0.52187265 0.72326545
-0.43561651 -0.5433464 0.71764403
-0.88487079 -0.091163963 -0.45682909
-0.90965926 -0.045168525 -0.41289204
-0.92557162 -0.003576512 -0.37855566
-0.94326848 0.035562736 -0.33012099
-0.97003729 0.075709489 -0.23085868
-0.98872052 0.09437856 -0.1162945
-0.9948076 0.093665799 -0.039806493
-0.99631682 0.085623935 0.004619248
-0.99311666 0.091671533 0.072908354
-0.99075469 0.098654863 0.093125529
-0.98869189 0.081829442 0.12566734
-0.98315658 0.079676545 0.16448341
-0.9752383 0.082228453 0.20530158
-0.96062092 0.077014182 0.26697616
-0.95029001 0.050124431 0.30730513
-0.90825035 0.028567154 0.41745086
-0.85786966 -0.0047768277 0.51384515
-0.82519957 -0.031458445 0.56396457
-0.80160322 -0.065963175 0.59420631
-0.78264227 -0.10147674 0.61414456
-0.75889384 -0.14633368 0.63456016
-0.72310356 -0.20313213 0.66019586
-0.68152404 -0.25821706 0.68472545
-0.630475 -0.3189534 0.70765105
-0.58436183 -0.37907004 0.71751457
-0.55393424 -0.41226513 0.72332172
-0.52035496 -0.44474506 0.7289942
-0.49420056 -0.47354355 0.72905577
-0.4774075 -0.49130842 0.7284903
-0.46421988 -0.50874929 0.72503383
-0.88971102 -0.071112895 -0.4509515
-0.91674967 -0.033474585 -0.39805716
-0.93144782 0.010036993 -0.36373646
-0.94853308 0.052153051 -0.31235407
-0.97674075 0.086262208 -0.19630674
-0.98747016 0.10103014 -0.12122538
-0.99538988 0.094891074 -0.01395248
-0.99527661 0.095373869 0.018119085
-0.99297212 0.088628986 0.078430041
-0.99178178 0.082463266 0.097819762
-0.98912025 0.080215565 0.12331504
-0.9842527 0.077914054 0.15866952
-0.97932789 0.073587782 0.18841902
-0.9643652 0.072536654 0.254437
-0.94651096 0.070620929 0.31484867
-0.91445908 0.048138996 0.40180495
-0.87363375 0.026489274 0.48586253
-0.83095651 -0.01683081 0.55608273
-0.81083681 -0.040541055 0.5838665
-0.79293051 -0.07097157 0.60516464
-0.77291719 -0.10857148 0.62514898
-0.74385832 -0.15990654 0.6489258
-0.70316415 -0.20333234 0.68133408
-0.66997057 -0.24093361 0.70220398
-0.63056778 -0.29794928 0.71666624
-0.58421443 -0.36165449 0.72656695
-0.55056579 -0.3993197 0.73309009
-0.52878473 -0.4237512 0.73540576
-0.50809284 -0.45676421 0.73021101
-0.49522382 -0.47291978 0.72876625
-0.90503202 -0.046826813 -0.42275797
-0.92510798 -0.0090933179 -0.37959522
-0.93649626 0.022470355 -0.34995691
-0.95813738 0.058114088 -0.28034892
-0.98241767 0.073349323 -0.17168398
-0.99181086 0.075931874 -0.10269165
-0.9974149 0.071834591 -0.0018166387
-0.99675364 0.077038873 0.023392328
-0.99363784 0.075856954 0.083244032
-0.99205705 0.074259623 0.10152991
-0.98915088 0.081692159 0.12209395
-0.98328232 0.085988373 0.16050506
-0.97297679 0.085963694 0.2143045
-0.95833103 0.092886754 0.27013643
-0.94529679 0.091523401 0.31310932
-0.92329218 0.062962482 0.37890272
-0.88267585 0.040041762 0.46827343
-0.84421441 0.0039300189 0.53599122
-0.81835961 -0.023540297 0.57422418
-0.80108196 -0.04783317 0.59664033
-0.78738933 -0.06720803 0.61278146
-0.76593699 -0.10529418 0.63423471
-0.73993972 -0.14064716 0.65780513
-0.70196777 -0.18434275 0.68793823
-0.65897953 -0.24995597 0.70941384
-0.62719752 -0.29577322 0.72051473
-0.57785535 -0.3644529 0.73024467
-0.55847957 -0.38903839 0.73263204
-0.53958691 -0.419033 0.73024469
-0.52922634 -0.43780805 0.72680368
-0.91779344 -0.030001905 -0.39592308
-0.93092532 0.0045251847 -0.36518155
-0.94003619 0.034792935 -0.33929546
-0.96551293 0.055227583 -0.25443013
-0.98749389 0.068300089 -0.14209476
-0.99482057 0.071833362 -0.071916594
-0.9971143 0.075741111 0.005134404
-0.99493015 0.083755197 0.055669314
-0.99189562 0.084381419 0.094988744
-0.98906606 0.088175317 0.11820932
-0.984226 0.094924639 0.14929331
-0.98001247 0.093387024 0.17565429
-0.96909874 0.097121218 0.22674897
-0.95933859 0.10437556 0.26225029
-0.94644402 0.098399433 0.30750816
-0.92430513 0.075711291 0.37406928
-0.89574518 0.056827122 0.4409209
-0.85965947 0.023779309 0.51031377
-0.83298547 -0.0090232814 0.55322128
-0.81100184 -0.034103327 0.58404878
-0.79585339 -0.053857621 0.60308933
-0.7806068 -0.074711797 0.62054103
-0.75779927 -0.10048167 0.64470435
-0.73501586 -0.12814403 0.6658309
-0.7028728 -0.17559945 0.68930012
-0.6697941 -0.22357722 0.70808834
-0.64056983 -0.27741581 0.71603824
-0.60718072 -0.32839787 0.7235236
-0.59019315 -0.35524592 0.72489473
-0.57095928 -0.37874974 0.72839147
-0.92383205 -0.011863639 -0.38261416
-0.93464111 0.01205923 -0.35538791
-0.94599877 0.041919299 -0.32144844
-0.96637687 0.074828224 -0.24600098
-0.98814907 0.077011723 -0.13278027
-0.99505848 0.088235767 -0.04553089
-0.99579104 0.091596545 0.0032074262
-0.99265517 0.099937807 0.068177279
-0.98962564 0.10674038 0.09616438
-0.98750689 0.10512598 0.11738255
-0.98142475 0.11263832 0.15529993
-0.97547748 0.10925901 0.19106585
-0.96581418 0.10281361 0.23797548
-0.95635319 0.11259906 0.26964798
-0.94610574 0.1181774 0.30152617
-0.92477682 0.095855604 0.36823843
-0.90003848 0.074412953 0.42941058
-0.8758297 0.049860551 0.48003777
-0.84793432 0.011353393 0.5299797
-0.82485475 -0.019076048 0.56502279
-0.80623341 -0.040229581 0.59022814
-0.79236985 -0.058777991 0.60720274
-0.77302536 -0.08217737 0.62902994
-0.75436266 -0.10380851 0.6481981
-0.73011138 -0.13605819 0.66964583
-0.7051521 -0.17662839 0.6867044
-0.6773481 -0.21468081 0.70364175
-0.64501789 -0.25903346 0.7189253
-0.62999015 -0.28986791 0.72047832
-0.60625609 -0.32145366 0.7274071
-0.93064955 0.0012511657 -0.36590962
-0.94117625 0.027353756 -0.33680711
-0.95204897 0.058905001 -0.30022151
-0.96831259 0.083768908 -0.23527325
-0.98803277 0.097638409 -0.11940678
-0.9930067 0.1067915 -0.050331491
-0.9929665 0.11722841 0.016583725
-0.98936947 0.1266297 0.071505018
-0.98759792 0.12013777 0.10108053
-0.98362856 0.12909124 0.12573907
-0.97808882 0.12974579 0.16281366
-0.96947994 0.133577 0.20558654
-0.96035563 0.13534847 0.24371675
-0.95093533 0.13821857 0.27679887
-0.94342402 0.13076735 0.30471465
-0.9253756 0.1221713 0.35882331
-0.90859899 0.11004053 0.40291309
-0.88838555 0.079770169 0.45211484
-0.85784723 0.030167356 0.51301857
-0.83602153 0.0014258141 0.54869479
-0.81722382 -0.029533705 0.5755632
-0.79944954 -0.05510501 0.59820052
-0.78078216 -0.070734089 0.62078653
-0.76173709 -0.090210041 0.64157521
-0.74774159 -0.10761519 0.65521102
-0.72865639 -0.13247487 0.67194514
-0.71222371 -0.16272091 0.68283182
-0.68615237 -0.19940626 0.69959422
-0.66403365 -0.23091704 0.71115162
-0.65137265 -0.26228245 0.71198426
-0.9381411 0.035337882 -0.34444521
-0.94691724 0.053121286 -0.31705815
-0.95488947 0.07570949 -0.28714836
-0.96911909 0.10318193 -0.22396805
-0.98340991 0.12525724 -0.13120815
-0.9909416 0.12187486 -0.056402761
-0.99054507 0.13421197 0.028418347
-0.98698785 0.14239007 0.07469978
-0.98419782 0.13842931 0.11041724
-0.98000903 0.14575155 0.1354208
-0.97317469 0.14943932 0.17492547
-0.96450889 0.15483615 0.21388868
-0.95544287 0.1555297 0.25087733
-0.94663059 0.15734218 0.28130761
-0.93839507 0.15856337 0.30703802
-0.92303702 0.14494013 0.3563636
-0.91157325 0.12923218 0.39029894
-0.89187057 0.10056693 0.44096845
-0.86917125 0.063098199 0.49046912
-0.84572082 0.031931392 0.53266939
-0.82428087 -0.003322507 0.56617136
-0.80943557 -0.032498158 0.58630873
-0.79237161 -0.054038046 0.60764062
-0.7754639 -0.070592613 0.62743321
-0.7594627 -0.087814184 0.64459683
-0.74643751 -0.10888677 0.65648664
-0.73078361 -0.13661446 0.66879878
-0.71289685 -0.1643158 0.68174659
-0.6981674 -0.18177773 0.69247321
-0.67724062 -0.21973354 0.70218396
-0.94149865 0.049733621 -0.33332695
-0.94909409 0.068158202 -0.30753027
-0.95709366 0.096224816 -0.2733359
-0.97089061 0.11787249 -0.20851261
-0.98296506 0.13554368 -0.12412735
-0.98798512 0.1432163 -0.058090381
-0.98727659 0.15619667 0.029791688
-0.98372747 0.16338927 0.07472755
-0.98017987 0.15887081 0.11835327
-0.9731686 0.16547992 0.15987267
-0.96700372 0.17388126 0.18619643
-0.95922296 0.17575694 0.22136128
-0.94971448 0.17591962 0.25902644
-0.94208957 0.17996351 0.28298478
-0.93509201 0.17696007 0.30706361
-0.92164836 0.16484293 0.35127072
-0.9117948 0.15326816 0.38097127
-0.89501764 0.13154717 0.426191
-0.87586478 0.097701252 0.47256255
-0.85916496 0.066813451 0.50731798
-0.84117951 0.032085514 0.53980325
-0.81973735 -0.0026294066 0.57273359
-0.80205891 -0.023611325 0.59677802
-0.78495365 -0.042993039 0.61806098
-0.77146407 -0.06267259 0.63317875
-0.75990541 -0.082840841 0.6447334
-0.74542881 -0.11023138 0.65740773
-0.73251017 -0.13504791 0.66722628
-0.71969618 -0.16190618 0.67514724
-0.703175 -0.18422616 0.68673549
-0.94341616 0.070991965 -0.32392297
-0.95046315 0.095589276 -0.2957744
-0.9571924 0.11392583 -0.2660895
-0.96903388 0.13611798 -0.20602241
-0.98119729 0.14505334 -0.12732399
-0.98398351 0.16954866 -0.055042789
-0.98140232 0.18044698 0.065485678
-0.98112376 0.17389058 0.084606387
-0.97488295 0.18437095 0.12494232
-0.96656703 0.1909313 0.17115321
-0.96027467 0.19543698 0.19919072
-0.95273907 0.19759657 0.23074632
-0.94346388 0.19820189 0.26569139
-0.93815578 0.19815753 0.2838967
-0.93077657 0.19245027 0.31083417
-0.92259405 0.1849065 0.33857024
-0.91081824 0.16939981 0.37644897
-0.8955585 0.15585661 0.41675375
-0.8847287 0.13012388 0.44757447
-0.86750946 0.10035396 0.48719238
-0.85321327 0.070645135 0.51675563
-0.83114884 0.037217356 0.5548031
-0.81208625 0.0071282501 0.58349388
-0.79448796 -0.014371506 0.60710983
-0.78118229 -0.03513999 0.62331326
-0.77170443 -0.058728275 0.63326398
-0.75997154 -0.079505193 0.64507534
-0.747848 -0.10768424 0.65507822
-0.73284227 -0.12621426 0.66858968
-0.71784099 -0.14914656 0.68004384
-0.94476093 0.090155127 -0.31511719
-0.95173514 0.11397875 -0.28497205
-0.95725237 0.13109303 -0.25784203
-0.96587735 0.15090533 -0.21049591
-0.97674115 0.1723489 -0.12756401
-0.97988328 0.19307243 -0.050515266
-0.97778119 0.20428736 0.047017131
-0.97625357 0.19784334 0.088243829
-0.96987849 0.20504323 0.13150281
-0.96118944 0.21056261 0.17826456
-0.95438216 0.21447216 0.20774118
-0.94782281 0.21376933 0.23650497
-0.93995547 0.21228145 0.26724576
-0.93545966 0.21133995 0.28328547
-0.92852563 0.20636748 0.30863024
-0.91914667 0.20389396 0.33704103
-0.90819505 0.19444131 0.37064043
-0.89563531 0.17902232 0.40717123
-0.8862101 0.15761557 0.43564777
-0.87245849 0.1393331 0.46840417
-0.86196415 0.1116596 0.49451991
-0.84123098 0.076746372 0.5352013
-0.82178503 0.041740564 0.56826674
-0.80308441 0.013994159 0.59570093
-0.79125911 -0.0037347854 0.61146961
-0.78238415 -0.029396154 0.62210201
-0.7717555 -0.049347754 0.63400177
-0.76071324 -0.071803615 0.64510434
-0.74879132 -0.087830198 0.65696074
-0.73395954 -0.10809166 0.67053679
-0.94656294 0.11667245 -0.30067613
-0.95218106 0.13581127 -0.27369057
-0.95705664 0.1516707 -0.2470599
-0.96252196 0.17356094 -0.20839402
-0.97182619 0.19699062 -0.12941621
-0.97500256 0.21815351 -0.042178826
-0.97133569 0.23129699 0.054851353
-0.97058786 0.22555033 0.084179882
-0.96299248 0.23438859 0.13306943
-0.95463755 0.23217325 0.18644765
-0.94778833 0.23843432 0.21176958
-0.94159362 0.23730077 0.2389347
-0.93532065 0.23396348 0.26539853
-0.92934282 0.23152086 0.28761087
-0.92432377 0.2302395 0.3043277
-0.91455708 0.21886639 0.34012182
-0.90553999 0.21019297 0.36853256
-0.8938817 0.19625119 0.40306448
-0.88424843 0.17981575 0.43101162
-0.87533118 0.17130344 0.45216198
-0.8630505 0.14836804 0.48283617
-0.84725133 0.11422255 0.51876622
-0.83103856 0.082344438 0.55008573
-0.81201115 0.053264879 0.58120629
-0.80132294 0.025440357 0.59769084
-0.79267475 -0.003029129 0.60963724
-0.78177245 -0.020884082 0.623214
-0.76946082 -0.045687982 0.63705781
-0.75846289 -0.05566077 0.64933498