# vtk DataFile Version 2.0
Grain example
ASCII
DATASET UNSTRUCTURED_GRID
POINTS 900 float
4.0435202 -6.3619107 20.85599
3.4682738 -6.3775253 21.054614
2.9540652 -6.3337474 21.212433
2.4342279 -6.2941121 21.367834
1.9100768 -6.2386792 21.525263
1.4219439 -6.2103964 21.633671
0.94513471 -6.1825026 21.726635
0.47079411 -6.1603389 21.82323
0.010859067 -6.139411 21.87831
-0.46349649 -6.0869266 21.884372
-0.90696148 -6.0600346 21.851621
-1.3074422 -6.0676299 21.804249
-1.731003 -6.0972264 21.695002
-2.1781135 -6.1367771 21.532385
-2.6891811 -6.1814677 21.298917
-3.2372741 -6.2274398 21.019356
-3.8891509 -6.2376533 20.644077
-4.6211185 -6.2319178 20.126751
-5.3562055 -6.2167723 19.524552
-6.1000501 -6.174109 18.907017
-6.7726882 -6.1213167 18.352572
-7.3905141 -6.0657836 17.82478
-7.9528533 -6.0152008 17.309903
-8.4841539 -5.9802534 16.794311
-9.0269888 -5.9341135 16.254121
-9.5589708 -5.8763152 15.706996
-10.110155 -5.842314 15.131638
-10.652228 -5.802759 14.539889
-11.187637 -5.7569993 13.938921
-11.7146 -5.7138605 13.34847
4.0689396 -5.9182522 21.332527
3.4744685 -5.9086904 21.574161
2.9379131 -5.8546321 21.744316
2.4072334 -5.7991587 21.910223
1.9093534 -5.7559636 22.045719
1.434702 -5.7223989 22.169258
0.95627684 -5.6823326 22.272493
0.47738608 -5.6440622 22.372144
0.038610769 -5.6165634 22.435499
-0.42207785 -5.5666928 22.458214
-0.85232852 -5.5351999 22.439349
-1.2519732 -5.5377823 22.382431
-1.6608284 -5.5650741 22.279814
-2.093061 -5.6002172 22.108357
-2.5970857 -5.6449345 21.865784
-3.2152681 -5.6799593 21.490194
-3.8938412 -5.6835213 21.023673
-4.6291272 -5.6758627 20.444585
-5.379733 -5.642379 19.794216
-6.1348898 -5.5927894 19.146902
-6.8631583 -5.5272041 18.522447
-7.5022554 -5.4510595 17.944057
-8.0719138 -5.3948148 17.371184
-8.6068592 -5.3328106 16.822549
-9.1492839 -5.2690581 16.262408
-9.6844887 -5.1915006 15.702474
-10.235001 -5.1179062 15.108904
-10.778812 -5.0566719 14.493064
-11.321101 -4.9960189 13.873284
-11.846739 -4.954601 13.283027
4.060139 -5.469381 21.804703
3.458631 -5.4363349 22.06976
2.9064977 -5.3772652 22.271584
2.4059218 -5.3168765 22.430428
1.9234072 -5.2767054 22.559299
1.444061 -5.2322637 22.694044
0.96579863 -5.1814162 22.822169
0.48262505 -5.1389924 22.916843
0.051721941 -5.107882 22.978502
-0.38455413 -5.0629289 23.018854
-0.80008748 -5.0119073 23.006417
-1.1805864 -5.0158378 22.941923
-1.5812788 -5.0270157 22.846196
-2.0342238 -5.0538338 22.650212
-2.5729256 -5.0715686 22.353835
-3.1979526 -5.0844959 21.937765
-3.8877494 -5.0819198 21.409299
-4.6280862 -5.0454111 20.762862
-5.3834628 -5.0015804 20.082278
-6.1461584 -4.9468005 19.396295
-6.899192 -4.8779196 18.700522
-7.5730986 -4.7940313 18.023708
-8.1635664 -4.7052715 17.397143
-8.7145673 -4.6247808 16.818995
-9.2715037 -4.5460962 16.234194
-9.8180591 -4.4581409 15.651355
-10.36589 -4.3702286 15.039206
-10.905108 -4.2937441 14.429054
-11.452775 -4.2370487 13.806964
-11.963818 -4.1957995 13.196946
4.0433586 -5.0064417 22.279589
3.4292642 -4.9654195 22.559234
2.8771697 -4.9109608 22.770416
2.3964596 -4.8541608 22.915541
1.9196356 -4.7911091 23.070232
1.4450169 -4.7298264 23.217974
0.96891811 -4.6739944 23.354925
0.49160387 -4.6243875 23.478944
0.069663853 -4.6011929 23.530807
-0.34180854 -4.5782255 23.548558
-0.74652214 -4.5257534 23.525606
-1.1147887 -4.4987886 23.47705
-1.5442758 -4.4693229 23.341699
-2.0245688 -4.4790768 23.119841
-2.5641233 -4.4716117 22.802653
-3.1899538 -4.4428829 22.333521
-3.8935383 -4.4017495 21.741306
-4.6208127 -4.3532775 21.095878
-5.3809089 -4.2972275 20.379302
-6.153553 -4.2168283 19.619699
-6.8835859 -4.129766 18.886367
-7.587723 -4.0483935 18.141792
-8.2389965 -3.947101 17.431113
-8.8035804 -3.8613811 16.819634
-9.3706612 -3.7830761 16.205427
-9.9301111 -3.6984623 15.578093
-10.480705 -3.6149565 14.955222
-11.01983 -3.534962 14.334235
-11.540026 -3.4855095 13.699673
-12.048052 -3.4563454 13.080306
4.012188 -4.539411 22.701905
3.4023276 -4.4956229 23.042982
2.8848586 -4.4433772 23.244843
2.3844091 -4.3761107 23.419536
1.9065722 -4.312593 23.576612
1.4332861 -4.2493605 23.727182
0.96053961 -4.1796981 23.871885
0.50311507 -4.1298457 23.991081
0.093318351 -4.0927737 24.03952
-0.30167056 -4.0723398 24.050352
-0.69395228 -4.0293818 24.009434
-1.1237887 -3.9839036 23.891667
-1.5588946 -3.9284205 23.763673
-2.0310571 -3.8681798 23.533187
-2.5679646 -3.8085305 23.152805
-3.1999481 -3.7677816 22.67927
-3.9028719 -3.6907783 22.028716
-4.6313566 -3.611258 21.346337
-5.3730335 -3.5233723 20.619799
-6.1384739 -3.4182665 19.827897
-6.8626921 -3.3467485 19.050911
-7.5675887 -3.2667226 18.278995
-8.2681579 -3.1836771 17.516108
-8.8737977 -3.0858767 16.850757
-9.4598783 -2.9764223 16.180189
-10.012228 -2.8950924 15.53617
-10.547835 -2.843596 14.884609
-11.082358 -2.7975717 14.245351
-11.605886 -2.742323 13.605899
-12.087722 -2.728259 12.968108
3.9707381 -4.0745432 23.092097
3.4110871 -4.031469 23.427478
2.8868467 -3.9646157 23.692183
2.3780599 -3.8964946 23.899714
1.8938604 -3.8222365 24.069819
1.4244017 -3.7597616 24.21371
0.95764895 -3.6969553 24.334757
0.50493365 -3.634783 24.436305
0.09899733 -3.5889328 24.500223
-0.29778628 -3.5549683 24.504576
-0.71944741 -3.5028859 24.401759
-1.1458671 -3.4327369 24.276614
-1.5953672 -3.3403111 24.091962
-2.0607304 -3.2463323 23.850722
-2.5870673 -3.1367037 23.48248
-3.2199085 -3.0466955 22.93337
-3.9165062 -2.9289617 22.248661
-4.6451842 -2.8137507 21.528765
-5.3614152 -2.6974634 20.8105
-6.1057857 -2.6172168 20.014243
-6.825493 -2.5445592 19.234118
-7.5367005 -2.4749672 18.448532
-8.2484932 -2.3915871 17.641033
-8.9364205 -2.2907021 16.863163
-9.5102091 -2.2085954 16.160039
-10.049826 -2.1360304 15.494689
-10.592331 -2.0702265 14.826122
-11.099897 -2.0215782 14.181024
-11.596948 -1.9684969 13.517641
-12.043178 -1.9657392 12.883349
3.9885916 -3.6779827 23.388122
3.4195947 -3.603154 23.749002
2.8831941 -3.5282887 24.047973
2.3734447 -3.4490393 24.30279
1.8996509 -3.3680831 24.495273
1.4195456 -3.2905447 24.627475
0.95087474 -3.2204517 24.747805
0.50780274 -3.1472702 24.84246
0.081492643 -3.0716151 24.881066
-0.36351264 -2.9918513 24.852524
-0.76009121 -2.9517054 24.750146
-1.1976412 -2.8528058 24.575295
-1.646143 -2.7217353 24.348402
-2.1196426 -2.5725009 24.075031
-2.6281522 -2.4318547 23.705758
-3.2474031 -2.297224 23.122226
-3.9277879 -2.1590416 22.444163
-4.6606378 -2.0168163 21.701873
-5.3522088 -1.9005381 20.977106
-6.0688141 -1.81587 20.200816
-6.7883185 -1.7433058 19.420214
-7.5011187 -1.6631326 18.626057
-8.2204227 -1.5824298 17.769094
-8.8948367 -1.5163224 16.925008
-9.5290084 -1.4581116 16.142433
-10.075981 -1.3957365 15.46658
-10.587853 -1.3121475 14.767357
-11.088954 -1.231822 14.071887
-11.542858 -1.2170043 13.430203
-11.982594 -1.2145929 12.806912
4.0038099 -3.2979004 23.64917
3.4377596 -3.2179958 24.018083
2.899351 -3.1470306 24.310551
2.3913633 -3.0750251 24.546241
1.8910045 -2.9909139 24.760036
1.4272051 -2.8825157 24.923004
0.95702979 -2.7748617 25.05214
0.4975249 -2.6791875 25.119543
0.019231383 -2.5804414 25.117504
-0.42176304 -2.490282 25.0778
-0.82259482 -2.3970438 24.963485
-1.2466055 -2.2756125 24.77335
-1.7154257 -2.1092942 24.49346
-2.1876345 -1.9343553 24.187631
-2.6926594 -1.7656271 23.768474
-3.2909386 -1.600159 23.219738
-3.9392692 -1.4351193 22.5983
-4.6472532 -1.3005765 21.871663
-5.326491 -1.1985031 21.143315
-6.0275881 -1.092401 20.381907
-6.750053 -0.97918157 19.576379
-7.4535477 -0.89692877 18.741282
-8.1550623 -0.82744774 17.868557
-8.8296898 -0.77158271 17.021675
-9.461986 -0.723313 16.193402
-10.036743 -0.65500766 15.398331
-10.564294 -0.57876197 14.676963
-11.030629 -0.52810417 14.008786
-11.477935 -0.4920904 13.347552
-11.921599 -0.48313429 12.719359
4.0161798 -2.9191511 23.890626
3.4554945 -2.837927 24.23558
2.9168629 -2.7544556 24.517166
2.405587 -2.673931 24.756769
1.8982181 -2.5703984 24.964347
1.4209405 -2.4622268 25.144092
0.94366426 -2.3413115 25.272932
0.43919218 -2.2248273 25.315588
-0.041479242 -2.1078194 25.278544
-0.47492321 -1.976719 25.183461
-0.88003211 -1.8570282 25.045578
-1.3021605 -1.7041264 24.83565
-1.779073 -1.5048523 24.562302
-2.2611073 -1.3051202 24.236164
-2.7620946 -1.1156255 23.799743
-3.3558241 -0.94099425 23.266499
-3.9784725 -0.77005604 22.681213
-4.6318665 -0.63674537 22.002478
-5.2964891 -0.5214418 21.291201
-5.9857705 -0.40938458 20.544856
-6.684449 -0.30530336 19.712062
-7.3844879 -0.20171935 18.834535
-8.0531515 -0.14017396 17.965523
-8.7011823 -0.084736079 17.106159
-9.3439843 -0.020437161 16.217907
-9.9417991 0.042225956 15.388946
-10.490089 0.075608624 14.599449
-10.957834 0.10741803 13.924452
-11.404583 0.14128032 13.267564
-11.848039 0.16794207 12.619897
4.0496222 -2.5397724 24.025921
3.4715726 -2.4397573 24.39663
2.9307066 -2.3332037 24.694535
2.4207647 -2.2328484 24.938309
1.9149883 -2.1462421 25.164866
1.3933359 -2.0354499 25.327113
0.86910675 -1.903666 25.410609
0.37677768 -1.7523464 25.397914
-0.10965012 -1.5894464 25.354246
-0.53069981 -1.4471117 25.239191
-0.95465513 -1.2889763 25.023648
-1.3824517 -1.121378 24.804855
-1.8421894 -0.91874329 24.557565
-2.3344158 -0.70224216 24.192912
-2.8345307 -0.49471147 23.792323
-3.414563 -0.30780408 23.295251
-4.0144096 -0.15608917 22.71651
-4.6302601 -0.010852261 22.092876
-5.2871273 0.11961808 21.384291
-5.9373324 0.23415401 20.630054
-6.6042422 0.34391189 19.815642
-7.2632547 0.42031283 18.968822
-7.9163004 0.4964336 18.083477
-8.5593897 0.57913928 17.175499
-9.2124329 0.66198894 16.25294
-9.7877327 0.69628576 15.424713
-10.345665 0.72313647 14.622317
-10.858422 0.73672017 13.861962
-11.312641 0.74903907 13.194724
-11.748802 0.76476326 12.552515
4.0873955 -2.1209256 24.146825
3.5040499 -2.0162912 24.514947
2.9450765 -1.9062241 24.84428
2.4339209 -1.8090991 25.102233
1.9030057 -1.6997255 25.303283
1.3382805 -1.5731322 25.416617
0.78961985 -1.4151178 25.461618
0.30635624 -1.248332 25.433006
-0.18251545 -1.0578363 25.345934
-0.61152212 -0.88209597 25.177865
-1.0375635 -0.69974055 24.981102
-1.4677793 -0.52454028 24.752898
[...]
POINT_DATA 900
VECTORS normals float
0.22955684 -0.71831055 0.65675994
0.17918916 -0.72590559 0.66404241
0.13961229 -0.73579267 0.66265945
0.11188734 -0.74537995 0.65718335
0.10286243 -0.7490913 0.65443223
0.069552356 -0.75195826 0.65553127
0.053089943 -0.75649941 0.65183595
0.023119954 -0.75351186 0.65702766
7.7347942e-06 -0.75659118 0.65388821
-0.02280046 -0.75230411 0.65842134
-0.047332895 -0.74911882 0.66074245
-0.10308603 -0.73401592 0.67126291
-0.14882878 -0.71914448 0.678735
-0.19699303 -0.70684385 0.67938614
-0.29401911 -0.66886637 0.68276683
-0.36316302 -0.62762611 0.68862043
-0.42106652 -0.57670677 0.7000802
-0.49910498 -0.49138342 0.71374824
-0.55769553 -0.409017 0.72227473
-0.60437022 -0.33880683 0.72107321
-0.63543627 -0.28877081 0.71612301
-0.65631306 -0.24797363 0.71257438
-0.67282514 -0.21533304 0.70776974
-0.68511896 -0.19479768 0.70190162
-0.69827796 -0.16714996 0.69603792
-0.71245097 -0.14778315 0.68598378
-0.72949003 -0.12114564 0.67317756
-0.74185244 -0.10113864 0.66289209
-0.7531171 -0.087820422 0.65199862
-0.7608748 -0.07055991 0.64505104
0.25682053 -0.69602027 0.67052144
0.18746668 -0.7162031 0.67224204
0.15080099 -0.72617838 0.67076375
0.12340314 -0.73384977 0.66800912
0.10887607 -0.74064398 0.66301771
0.075172818 -0.74134178 0.66690435
0.060602964 -0.74538687 0.66387174
0.0226743 -0.74728984 0.66411126
-0.002132455 -0.74328575 0.66897067
-0.03116455 -0.73994395 0.67194622
-0.062951494 -0.73516766 0.67495601
-0.12503562 -0.71783119 0.68489742
-0.17505234 -0.70015159 0.69220259
-0.25219765 -0.66487016 0.70309602
-0.33139605 -0.63529489 0.69755076
-0.41503901 -0.57956237 0.70132024
-0.4894105 -0.51258615 0.70550181
-0.55968786 -0.42026147 0.71423371
-0.59223755 -0.3620933 0.71982159
-0.63554142 -0.29145852 0.71493988
-0.66392529 -0.240911 0.70793015
-0.68382557 -0.20650211 0.69981388
-0.69148368 -0.1798546 0.69964466
-0.7046589 -0.15680685 0.69200249
-0.71354884 -0.1288669 0.68865185
-0.72613068 -0.10927401 0.67881766
-0.74142835 -0.087101161 0.66535508
-0.75079291 -0.073873224 0.65639375
-0.76450513 -0.055045105 0.64226314
-0.7726519 -0.043119606 0.63336383
0.27258622 -0.67881476 0.6818411
0.21640817 -0.69687383 0.68376485
0.16656393 -0.71255939 0.6815538
0.1406519 -0.72203659 0.67740698
0.10692194 -0.72135636 0.6842607
0.089177227 -0.72256142 0.68553076
0.079262993 -0.73116644 0.67757879
0.023950803 -0.73372156 0.679028
-0.0022585159 -0.73413724 0.67899736
-0.034347363 -0.72743223 0.68531935
-0.10166955 -0.70739505 0.69946804
-0.15561375 -0.69628348 0.70069514
-0.21168979 -0.6720984 0.70955703
-0.3047947 -0.62291691 0.7204684
-0.402921 -0.5741761 0.71272468
-0.48395588 -0.51261717 0.70923222
-0.55048691 -0.43635406 0.71172979
-0.59762642 -0.36672663 0.71298965
-0.63920351 -0.30296815 0.70684452
-0.66372278 -0.25187539 0.70429458
-0.6883765 -0.20636192 0.69537943
-0.70230089 -0.17152794 0.69090638
-0.71268417 -0.14219502 0.68692201
-0.72149243 -0.11859017 0.68219136
-0.73119291 -0.09659619 0.67529705
-0.74059845 -0.078638871 0.6673304
-0.75484259 -0.054870294 0.65360685
-0.76353501 -0.043391955 0.64430694
-0.7729585 -0.028414086 0.63382
-0.78079432 -0.016767507 0.62456312
0.31408362 -0.63495632 0.70582006
0.22948502 -0.67659937 0.69967844
0.18031443 -0.69649188 0.69453996
0.14101078 -0.69927317 0.70080882
0.11983005 -0.70647943 0.69751528
0.10352392 -0.71560716 0.69078882
0.058817454 -0.70932873 0.70241958
0.032656622 -0.70978579 0.7036602
0.0029437169 -0.71359635 0.70055091
-0.052736833 -0.70514268 0.70710157
-0.13047528 -0.6787229 0.72271117
-0.18860024 -0.64903875 0.73700655
-0.26062225 -0.62208664 0.73829821
-0.39828429 -0.5418902 0.74008421
-0.47869899 -0.48532387 0.73164747
-0.55707179 -0.41466914 0.71952799
-0.60219405 -0.35989656 0.71262668
-0.6457372 -0.29076944 0.70602875
-0.66942541 -0.25269953 0.69857896
-0.6921222 -0.21628848 0.68861176
-0.70651759 -0.17872173 0.68475649
-0.72012653 -0.14555238 0.67840422
-0.72797268 -0.1192637 0.67515327
-0.73603111 -0.097025794 0.66995835
-0.74581809 -0.073474989 0.6620852
-0.75411622 -0.052503671 0.65463891
-0.76515545 -0.030249809 0.64313458
-0.77023911 -0.016712435 0.63753621
-0.78158039 -0.0037064931 0.62379351
-0.79187446 0.015673545 0.61048275
0.35795064 -0.59179259 0.7222554
0.25110538 -0.64598106 0.7208707
0.21019431 -0.66586277 0.71585272
0.15999453 -0.68807374 0.70778265
0.13558217 -0.69161788 0.70942384
0.11216593 -0.68511343 0.71974884
0.060497447 -0.68662654 0.72448883
0.037986759 -0.68700345 0.72566058
-0.0014471917 -0.67316316 0.73949257
-0.081085863 -0.66056478 0.74637742
-0.16219209 -0.63818432 0.75260514
-0.26270595 -0.59015399 0.76335041
-0.36932678 -0.53200293 0.76195184
-0.4694456 -0.45995523 0.75369889
-0.55571596 -0.39852197 0.72963005
-0.6070572 -0.33780701 0.71928297
-0.64932018 -0.27577695 0.70875269
-0.67189468 -0.23678497 0.70177661
-0.68944788 -0.20642121 0.69429958
-0.70909251 -0.17502734 0.68304703
-0.72080863 -0.1491496 0.67689683
-0.73098682 -0.12451836 0.67093476
-0.74058361 -0.10121614 0.66429753
-0.75101259 -0.078369615 0.65562054
-0.75827434 -0.053828717 0.64970955
-0.76631663 -0.026566718 0.64191357
-0.77659289 -0.0051099972 0.62998204
-0.78187562 0.01456551 0.62326427
-0.79363341 0.03359292 0.60746813
-0.8020906 0.054956356 0.59466836
0.42589566 -0.53411685 0.73029588
0.32288828 -0.59314592 0.73751005
0.24452165 -0.63081662 0.73639633
0.19608119 -0.64610364 0.73763287
0.14959742 -0.65284173 0.74257544
0.10799801 -0.66013409 0.7433434
0.066354573 -0.65572943 0.75207445
0.032940897 -0.62410167 0.78064845
-0.027455164 -0.61489821 0.78812842
-0.097995445 -0.59701742 0.79622051
-0.20992884 -0.56706772 0.79646976
-0.3310852 -0.50842617 0.79491221
-0.45895131 -0.43078674 0.77703699
-0.54333996 -0.36970923 0.75372194
-0.60351014 -0.31077819 0.73429723
-0.65703964 -0.25919068 0.70789766
-0.679026 -0.22168109 0.69984369
-0.69313864 -0.19244511 0.69463926
-0.71014552 -0.16548196 0.68433111
-0.72542678 -0.14310084 0.67325934
-0.73491461 -0.11860685 0.66770722
-0.7443723 -0.099159046 0.66036153
-0.75344746 -0.07507142 0.65320839
-0.76365948 -0.051408229 0.64356925
-0.77300382 -0.028092393 0.63377907
-0.78130788 0.0047938957 0.62412741
-0.78866547 0.038065984 0.61364302
-0.79632211 0.05638127 0.60223936
-0.80360644 0.079533718 0.58982292
-0.80893512 0.1042563 0.57857981
0.45735267 -0.4988406 0.73619739
0.3665391 -0.53599403 0.7604995
0.29133303 -0.56871822 0.7692104
0.21298249 -0.59264323 0.77679628
0.17221463 -0.60471169 0.77760266
0.12139816 -0.59565879 0.79401077
0.065757456 -0.57381342 0.81634191
0.016789652 -0.55591929 0.83106669
-0.050378854 -0.52394261 0.85026238
-0.14307681 -0.4977017 0.85546598
-0.28767077 -0.42758466 0.85698127
-0.41474411 -0.38108837 0.82629231
-0.51511301 -0.31574658 0.79684546
-0.59458683 -0.25857266 0.76131904
-0.64556398 -0.22898593 0.72856887
-0.67846577 -0.19682657 0.70777362
-0.69296619 -0.18006769 0.6981214
-0.70765627 -0.15820973 0.68861621
-0.72364218 -0.13531191 0.67678111
-0.73744633 -0.1106525 0.66627992
-0.74946276 -0.086095068 0.65642456
-0.75723468 -0.066260851 0.64977314
-0.76521115 -0.043253554 0.6423247
-0.77556733 -0.0094841789 0.63119361
-0.78363888 0.011426127 0.62111155
-0.79281478 0.049021642 0.60748795
-0.8002145 0.081743301 0.59411681
-0.80840109 0.10837072 0.57857018
-0.81119036 0.11798984 0.57275526
-0.81477777 0.1416731 0.5621974
0.48322048 -0.44592496 0.75342478
0.40877471 -0.47278568 0.78062599
0.32759523 -0.49262998 0.80622395
0.24589342 -0.53311733 0.80951982
0.17642459 -0.5339038 0.82693476
0.1250852 -0.53722053 0.83411498
0.060722653 -0.51988846 0.85207321
-0.0096454211 -0.46429908 0.88562595
-0.12223911 -0.38993732 0.91269189
-0.23344545 -0.34724293 0.90825413
-0.33723952 -0.2990081 0.8926722
-0.45542728 -0.25064356 0.85426214
-0.5534944 -0.2064402 0.80686207
-0.61903236 -0.18091556 0.76424374
-0.65525933 -0.15921922 0.73843378
-0.68287387 -0.14718948 0.7155547
-0.70025487 -0.13628178 0.70076415
-0.71684478 -0.12376634 0.68615993
-0.73317729 -0.10408167 0.67202534
-0.74783306 -0.078637235 0.65921309
-0.75884576 -0.0502188 0.64933134
-0.76968168 -0.023364237 0.63800018
-0.77840654 0.0074716088 0.62771604
-0.78836277 0.04319235 0.61369257
-0.79507906 0.063805049 0.60314028
-0.80170939 0.094673008 0.59016868
-0.8083394 0.12689923 0.57487738
-0.81341877 0.14720877 0.56274282
-0.81473376 0.15704093 0.558164
-0.82020242 0.17037594 0.54611356
0.50365835 -0.39211013 0.76979082
0.44136844 -0.4075249 0.79944816
0.36244041 -0.4360813 0.82369293
0.27235632 -0.44410226 0.85357789
0.19071929 -0.44898661 0.87294741
0.13540054 -0.4433717 0.88605205
0.032073758 -0.39009211 0.92021705
-0.063750457 -0.32931154 0.94206676
-0.16597116 -0.27056992 0.94828556
-0.27511445 -0.22167152 0.93550723
-0.3704371 -0.16002833 0.91496847
-0.48756542 -0.12611635 0.86392976
-0.55644027 -0.10124578 0.82469602
-0.61687243 -0.096482311 0.78112711
-0.65482374 -0.099528707 0.74919951
-0.6818951 -0.10379507 0.7240481
-0.70285464 -0.089203457 0.70571815
-0.72266329 -0.076818882 0.68691821
-0.74085449 -0.05931578 0.6690413
-0.75719514 -0.034277797 0.65228871
-0.76951278 -0.0074739548 0.63858767
-0.77864521 0.022954816 0.62704442
-0.78741241 0.053584808 0.61409313
-0.7957174 0.08866026 0.59914371
-0.80101704 0.11749573 0.58699784
-0.80736285 0.13975698 0.5732654
-0.81135306 0.16078869 0.5620082
-0.81602557 0.17337185 0.55140228
-0.81679462 0.18701286 0.54577719
-0.82437627 0.20690097 0.52687356
0.53365975 -0.33447912 0.77674384
0.457174 -0.3487628 0.81814206
0.39384783 -0.35803447 0.84657853
0.29885516 -0.35965085 0.88393261
0.2143303 -0.34598556 0.91343118
0.1294429 -0.28473945 0.94982524
0.0063444442 -0.23594226 0.97174636
-0.088658322 -0.17618041 0.98035716
-0.20581727 -0.10889972 0.97251226
-0.30726767 -0.089999342 0.94735774
-0.39847627 -0.035146928 0.91650497
-0.48926056 -0.024522416 0.87179284
-0.55674864 -0.02330465 0.83035405
-0.61317152 -0.026154312 0.78951671
-0.63998959 -0.03473071 0.76759827
-0.67482383 -0.03899927 0.73694766
-0.69967702 -0.029154771 0.71386418
-0.72501623 -0.017868726 0.68849994
-0.7446063 -0.0083845422 0.66745124
-0.76155685 0.012494521 0.64797767
-0.77335697 0.04025332 0.63269161
-0.78347912 0.067651122 0.61772469
-0.79132495 0.096953879 0.60365949
-0.79897519 0.12788191 0.58760945
-0.80396129 0.16042317 0.57263483
-0.80734377 0.17708956 0.56288127
-0.81310653 0.18615683 0.55154638
-0.81553253 0.20385066 0.54161942
-0.81762422 0.21906366 0.53244882
-0.82671902 0.24368533 0.50710267
0.54674886 -0.27839812 0.78965826
0.48414282 -0.27006899 0.83226707
0.40628069 -0.25486983 0.87748354
0.32189147 -0.25457849 0.91190771
0.22236857 -0.20261154 0.95367751
0.11099861 -0.15742074 0.98127367
-0.0077562792 -0.085931804 0.99627083
-0.12225739 -0.037467976 0.99179095
-0.23832028 0.0085484423 0.97114899
-0.32673615 0.035934527 0.94443221
-0.40398644 0.051435413 0.91331777
-0.4772941 0.055345612 0.87699898
-0.54701614 0.04129596 0.83610286
-0.59564899 0.035973074 0.80243892
-0.62419881 0.039256456 0.78027865
-0.66194639 0.040326389 0.74846561
-0.6942072 0.03322583 0.71900793
-0.72036937 0.039880283 0.69244316
-0.74395534 0.042972365 0.66684618
-0.76424759 0.056610796 0.64243353
-0.77544987 0.086158779 0.62550313
-0.78695855 0.10477789 0.60804427
-0.79445288 0.1426459 0.59033615
-0.79941882 0.16145142 0.57867347
-0.80304147 0.19041046 0.56468421
-0.80783012 0.20474572 0.55271121
-0.81201874 0.21828816 0.54127242
-0.81505826 0.23091985 0.53137185
-0.81917654 0.25368905 0.51438473
-0.82980634 0.26452449 0.49137382
0.56282863 -0.18822035 0.80485839
0.50150589 -0.18952799 0.8441392
0.41702781 -0.1531156 0.89590369
0.31259264 -0.098144564 0.94480341
0.20211913 -0.033538632 0.9787865
0.10023612 0.0052449431 0.99494985
-0.015761988 0.063680902 0.99784583
-0.11972608 0.083322657 0.9893043
-0.24776342 0.10745048 0.96284354
-0.32704088 0.11103469 0.93846447
-0.41268618 0.09891324 0.90548677
-0.46319013 0.10818075 0.87963164
-0.52636898 0.10032808 0.84431627
-0.57793656 0.091395451 0.81094772
-0.61214107 0.10764625 0.78338726
-0.65235545 0.11071574 0.7497829
-0.6862036 0.10470546 0.71983428
-0.71118923 0.10426105 0.69522624
-0.73861152 0.10628446 0.66570011
-0.75930303 0.1198745 0.63960067
-0.77362248 0.12623338 0.62094556
-0.78571017 0.14958112 0.60023747
-0.79476245 0.17303012 0.58173295
-0.79971743 0.19330799 0.56840483
-0.80300868 0.21365469 0.55635307
-0.80548611 0.23636669 0.54343621
-0.81068566 0.25071874 0.52908304
-0.811358 0.26383271 0.52162295
-0.81795778 0.28429706 0.50012023
-0.82845302 0.29599638 0.47544899
0.57063554 -0.11544491 0.81304831
0.50383912 -0.078994991 0.86017785
0.41526987 -0.039826499 0.90882605
0.29031384 0.030510194 0.95644498
0.18215219 0.097076052 0.97846657
0.072768531 0.13241157 0.98852006
-0.012666365 0.18078085 0.98344184
-0.13042276 0.17907659 0.97515203
-0.24877347 0.1800243 0.9516843
-0.31825624 0.16724282 0.933136
-0.39549234 0.16546838 0.90344121
-0.46064804 0.15780424 0.87344216
-0.51572458 0.15859099 0.84194837
-0.56412963 0.16891622 0.8082234
-0.60548206 0.17595128 0.77616533
-0.63561246 0.1797335 0.75079469
-0.66685705 0.17665141 0.72394471
-0.70006115 0.17490856 0.6923304
-0.7291461 0.17946949 0.66040644
-0.74940043 0.18069626 0.6369834
-0.76334668 0.18610653 0.6186002
-0.77863094 0.19962931 0.59487981
-0.78894715 0.21163988 0.57686303
-0.79676575 0.22243479 0.56186039
-0.80039021 0.24079094 0.54899475
-0.80451994 0.25898532 0.53448505
-0.80579708 0.2824583 0.5204886
-0.81022954 0.29569226 0.50605748
-0.81503195 0.31192131 0.48829092
-0.82542799 0.33427484 0.45489446
0.57565283 -0.041649706 0.81663279
0.49062461 0.035942413 0.87062945
0.38451869 0.091765058 0.9185448
0.27472031 0.16102266 0.94794539
0.16659602 0.2089108 0.96364
0.073813825 0.22751152 0.97097375
-0.0070147888 0.25760469 0.96622493
-0.12610557 0.24422276 0.9614846
-0.22734046 0.2450583 0.94247692
-0.29701325 0.23967607 0.92430434
-0.38064741 0.23493878 0.89437761
-0.44005626 0.24349186 0.8643276
-0.50724619 0.2309555 0.83027758
-0.55108328 0.24338475 0.79816733
-0.57521782 0.25015461 0.77881136
-0.61264058 0.24145604 0.75257591
-0.64627725 0.25139278 0.72050495
-0.68083006 0.24602724 0.68988479
-0.71271079 0.2407374 0.65885418
-0.73452498 0.24015885 0.63466272
-0.75188769 0.23773573 0.61493628
-0.7673623 0.24642244 0.59197219
-0.77969641 0.24889864 0.57456329
-0.78904019 0.26069837 0.55628405
-0.79463287 0.27779188 0.53980577
-0.79975863 0.29191349 0.52456902
-0.80350524 0.31019952 0.50809014
-0.80584498 0.33400674 0.48893084
-0.81117742 0.34955273 0.46883268
-0.82030109 0.36738529 0.43833113
0.57246303 0.048583857 0.81848988
0.48226532 0.13710016 0.86523043
0.35890802 0.2105815 0.90930769
0.25390296 0.25678568 0.93252046
0.16550087 0.29802185 0.94010236
0.071869602 0.3008395 0.95096286
-0.012069947 0.31554562 0.94883364
-0.11847059 0.30331088 0.9454984
-0.23401202 0.29240089 0.92722171
-0.31379732 0.29373052 0.90291396
-0.37040574 0.29985545 0.87913952
-0.42183421 0.31516877 0.85013208
-0.49396695 0.3079813 0.81310772
-0.52473882 0.31290065 0.79167061
-0.5587495 0.31216683 0.76834294
-0.58856756 0.31648284 0.74392664
-0.6197979 0.31638871 0.7181565
-0.66093864 0.30052375 0.68763769
-0.69697441 0.2888582 0.65634413
-0.71794982 0.28658028 0.63436567
-0.73743948 0.28859212 0.61065342
-0.75420828 0.28429593 0.59190008
-0.76753415 0.29622012 0.56845841
-0.78031753 0.29723157 0.55023445
-0.78670871 0.3106258 0.5334801
-0.79267111 0.32524772 0.51564176
-0.79695648 0.34442475 0.49621765
-0.79714618 0.36808034 0.47861763
-0.80384207 0.38539532 0.45310966
-0.81084706 0.40697504 0.42059287
0.55223274 0.15579539 0.81900354
0.46070551 0.23206886 0.85667641
0.34124902 0.29987774 0.8908549
0.25263087 0.33957179 0.90601801
0.17515561 0.36451397 0.91457644
0.090958911 0.36363793 0.92708896
-0.0074669609 0.36160022 0.93230334
-0.10842351 0.37146845 0.92209302
-0.21881309 0.3702083 0.90281041
-0.29986478 0.3709272 0.87891645
-0.35139271 0.36567594 0.86186093
-0.42059787 0.36646025 0.82994236
-0.4679596 0.37320273 0.80108272
-0.50268729 0.36670018 0.78283872
-0.53862203 0.35941776 0.76204014
-0.57286821 0.36106555 0.73583537
-0.60265844 0.36487465 0.70969662
-0.63768079 0.35720648 0.68247105
-0.67134807 0.34590283 0.65547159
-0.69793301 0.33553927 0.63269496
-0.71917673 0.3332769 0.60968134
-0.73763118 0.33450782 0.58651919
-0.75513054 0.33664404 0.5625377
-0.76920703 0.33553857 0.54381469
-0.77790918 0.3415947 0.52741859
-0.78499923 0.35472092 0.50788708
-0.78917787 0.37224637 0.48849866
-0.79334574 0.39074001 0.46682415
-0.79969611 0.4089108 0.43963405
-0.80459889 0.43331641 0.40602649
0.52656962 0.24844784 0.8130179
0.4322791 0.31482911 0.84499551
0.33462665 0.36614138 0.86831186
0.25048205 0.39605551 0.88340182
0.18561616 0.41600156 0.8902187
0.10060628 0.41780814 0.9029478
0.0081877477 0.4117931 0.91124058
-0.10625424 0.42246736 0.90012853
-0.20456046 0.42677846 0.88091723
-0.27495946 0.42879306 0.86054274
-0.33953097 0.42845172 0.83734571
-0.39860158 0.42050063 0.81504356
-0.44039732 0.42871224 0.78883206
-0.48141115 0.4162678 0.77133937
-0.50957831 0.41893337 0.75154825
-0.5450423 0.42611675 0.72204807
-0.57329308 0.43097128 0.69684919
-0.61285725 0.41344387 0.67340192
-0.63963573 0.40692644 0.65213266
-0.6688024 0.39018231 0.63281996
-0.69881001 0.38202264 0.60475059
-0.7183098 0.37951648 0.5830937
-0.73887447 0.37508642 0.5597988
-0.7553887 0.37274503 0.53893325
-0.7655358 0.37747079 0.52102854
-0.77434342 0.38795818 0.4998807
-0.78029672 0.40328456 0.47801527
-0.78643331 0.41372983 0.45863959
-0.79187306 0.43274373 0.43089432
-0.80152785 0.44986575 0.39392119
0.50077495 0.32956232 0.80038311
0.41355815 0.38451933 0.82529664
0.32137477 0.42619224 0.8456231
0.25927672 0.44115272 0.85916231
0.20103622 0.44810033 0.87108583
0.10866816 0.45726056 0.88266869
0.01409879 0.47095771 0.88204312
-0.094744156 0.48223619 0.87090287
-0.19095653 0.48606601 0.85280445
-0.2620054 0.48786597 0.83267039
-0.31740601 0.48574308 0.81443667
-0.37190576 0.47861702 0.795369
-0.41375579 0.48502682 0.77042529
-0.45126376 0.48038436 0.75205843
-0.48501185 0.48720132 0.72622199
-0.51929962 0.48120629 0.70623537
-0.55011855 0.47626941 0.68595702
-0.57886379 0.46976982 0.66650809
-0.60935584 0.45794374 0.64728123
-0.64000188 0.44243616 0.62821003
-0.67153531 0.43345094 0.6009664
-0.69799104 0.42160943 0.5788385
-0.71523563 0.4189076 0.55942329
-0.73655668 0.41311257 0.5355579
-0.75012668 0.41448185 0.51528125
-0.7621455 0.42158046 0.49132896
-0.76974879 0.43700266 0.46531224
-0.77777232 0.44468919 0.44420912
-0.78541546 0.45917287 0.41506966
-0.79299916 0.48037677 0.3746872
0.47745308 0.38679578 0.78894079
0.38403406 0.4365069 0.81362127
0.31315082 0.46041252 0.83063643
0.26613654 0.47276649 0.84003761
0.20148321 0.48278105 0.85224819
0.10272301 0.50063277 0.85954337
0.015668576 0.52432149 0.85137622
-0.10080644 0.53319903 0.83996241
-0.15812987 0.55275884 0.81820084
-0.23242146 0.55314792 0.80000478
-0.28087223 0.54826024 0.78773187
-0.33439544 0.55343952 0.76281347
-0.38275038 0.54867019 0.74327866
-0.41665145 0.54460492 0.72787846
-0.45323671 0.54615643 0.70447827
-0.48031372 0.5479586 0.68486503
-0.52019827 0.53131316 0.66865543
-0.54349187 0.52440352 0.65545216
-0.57375288 0.50780761 0.64260335
-0.6088953 0.4978852 0.61754097
-0.64116861 0.48844276 0.59188385
-0.67047059 0.47006476 0.57402814
-0.68755116 0.46698514 0.55605601
-0.71422211 0.45517909 0.53169425
-0.73110806 0.45857722 0.50516129
-0.74598602 0.46263554 0.47903362
-0.75248323 0.47605023 0.45513203
-0.76041842 0.48626914 0.43047201
-0.77050995 0.49626245 0.4000475
-0.7773707 0.5162251 0.35945298
0.45746671 0.43229041 0.77707735
0.37431723 0.46579971 0.8018212
0.31913109 0.48789201 0.81247568
0.27045459 0.49622297 0.8249952
0.20721507 0.5147032 0.83195104
0.10503283 0.54823474 0.82970282
0.0024513636 0.57438753 0.81857984
-0.099454904 0.58303131 0.80633939
-0.16135942 0.60990523 0.7758729
-0.21253967 0.6137927 0.76031928
-0.24650658 0.61529734 0.74876144
-0.2931134 0.61787625 0.72959816
-0.34610377 0.60925707 0.71345498
-0.38141292 0.60866718 0.6957359