# vtk DataFile Version 2.0
Grain example
ASCII
DATASET UNSTRUCTURED_GRID
POINTS 900 float
2.7621502 -6.868365 -20.208941
2.1470259 -6.8875434 -20.405976
1.560008 -6.8849165 -20.54622
0.99760531 -6.8670528 -20.6332
0.53058712 -6.8480506 -20.637231
0.09911265 -6.8441142 -20.638629
-0.34383663 -6.8443644 -20.623407
-0.79661667 -6.8498324 -20.583215
-1.2895575 -6.8349038 -20.54171
-1.8015947 -6.8202657 -20.473053
-2.3644303 -6.812821 -20.361938
-2.9489408 -6.8305943 -20.149036
-3.5605251 -6.8308959 -19.903194
-4.1899729 -6.8235016 -19.638153
-4.801934 -6.819239 -19.37931
-5.4069025 -6.8138313 -19.121359
-5.9892325 -6.803341 -18.875338
-6.5863905 -6.7790429 -18.560699
-7.1875385 -6.719565 -18.242552
-7.7718814 -6.6467464 -17.931108
-8.361865 -6.5693772 -17.611552
-8.9589539 -6.4854824 -17.276581
-9.5405464 -6.4536622 -16.888238
-10.097393 -6.4042571 -16.483591
-10.609389 -6.3306442 -16.065424
-11.11794 -6.2245243 -15.597479
-11.630032 -6.0990264 -15.086804
-12.124318 -5.9756969 -14.610021
-12.613937 -5.8507111 -14.139704
-13.075088 -5.7362365 -13.681713
2.7625136 -6.3632746 -20.882775
2.1501186 -6.3803676 -21.090914
1.5592248 -6.3768874 -21.240445
1.004004 -6.351928 -21.323883
0.54718158 -6.3451424 -21.324683
0.11483884 -6.3403443 -21.332571
-0.31692731 -6.3296804 -21.335098
-0.76936293 -6.3275543 -21.301128
-1.2545373 -6.3200436 -21.203526
-1.7787364 -6.3170765 -21.069718
-2.3350239 -6.3216408 -20.916846
-2.8943904 -6.3253246 -20.729327
-3.5266214 -6.3255755 -20.460045
-4.1563675 -6.3261214 -20.186465
-4.7920059 -6.3304047 -19.89392
-5.4057223 -6.3174379 -19.6289
-6.0019676 -6.2932911 -19.355755
-6.6154675 -6.2421444 -19.016257
-7.2237282 -6.1774822 -18.67389
-7.8168235 -6.108105 -18.348127
-8.4133181 -6.0289904 -18.024534
-9.0204453 -5.9152988 -17.656433
-9.5863262 -5.810284 -17.257246
-10.15836 -5.6883116 -16.82358
-10.705112 -5.5835836 -16.317674
-11.21691 -5.4611464 -15.808286
-11.732987 -5.3404513 -15.291509
-12.229037 -5.2134272 -14.797332
-12.708669 -5.0996303 -14.309055
-13.149548 -5.0165871 -13.820409
2.7709873 -5.8580062 -21.506733
2.1355157 -5.8860276 -21.75165
1.550843 -5.873898 -21.908763
1.0263036 -5.8522915 -21.984433
0.57239597 -5.8448056 -21.987071
0.14188229 -5.8424245 -21.977345
-0.28544163 -5.8487519 -21.950723
-0.72689085 -5.830735 -21.880699
-1.2196636 -5.8282642 -21.75719
-1.7487317 -5.8282511 -21.608582
-2.3085898 -5.8268762 -21.45477
-2.8696334 -5.8170105 -21.271163
-3.4829982 -5.8073654 -21.027341
-4.1172161 -5.8059444 -20.74925
-4.7559173 -5.8112308 -20.453015
-5.4032907 -5.7990055 -20.128336
-6.0228816 -5.7408352 -19.819084
-6.6447518 -5.6872234 -19.460371
-7.2593377 -5.6221995 -19.104701
-7.8567128 -5.5545656 -18.771546
-8.45921 -5.4645191 -18.417097
-9.0362242 -5.3667608 -18.00246
-9.6002698 -5.2664895 -17.592042
-10.18236 -5.1144045 -17.105656
-10.758403 -4.9360661 -16.547604
-11.298321 -4.7492643 -15.98924
-11.794026 -4.6157028 -15.450986
-12.276428 -4.5240224 -14.906727
-12.740243 -4.4406752 -14.398472
-13.190003 -4.3694138 -13.862513
2.7805957 -5.351025 -22.097525
2.1365838 -5.3725144 -22.350101
1.556197 -5.3779629 -22.517709
1.0533881 -5.3704441 -22.566925
0.6053071 -5.3688911 -22.568405
0.18187904 -5.3660576 -22.554937
-0.25733165 -5.3671813 -22.487079
-0.71501211 -5.3469804 -22.403438
-1.1910702 -5.3401356 -22.292817
-1.7166417 -5.3395506 -22.144656
-2.2875251 -5.326783 -21.989447
-2.8591706 -5.3062267 -21.799433
-3.4427783 -5.273425 -21.592838
-4.0815143 -5.2696908 -21.312555
-4.7214931 -5.2540591 -21.003244
-5.3824722 -5.2225874 -20.644514
-6.0338435 -5.1848906 -20.274225
-6.6697919 -5.1199104 -19.895177
-7.2871319 -5.0629579 -19.532444
-7.8785967 -5.0006542 -19.158663
-8.4504506 -4.9236629 -18.754416
-9.0333734 -4.8316268 -18.329458
-9.6155523 -4.7064875 -17.861194
-10.197842 -4.5390681 -17.345702
-10.757268 -4.3793717 -16.75779
-11.292842 -4.2420307 -16.162953
-11.807398 -4.0922766 -15.564723
-12.299097 -3.9401235 -15.003934
-12.780839 -3.8216228 -14.44019
-13.22372 -3.7488808 -13.885763
2.7691965 -4.8455069 -22.655268
2.1096615 -4.873597 -22.922546
1.5364368 -4.8819658 -23.064174
1.0734442 -4.9024394 -23.108478
0.63206781 -4.9026741 -23.113533
0.20628157 -4.9046921 -23.070425
-0.24662241 -4.880844 -23.006218
-0.7078087 -4.8662236 -22.910911
-1.1722994 -4.8558847 -22.812278
-1.6960155 -4.8330332 -22.678608
-2.2759403 -4.8063139 -22.51526
-2.8572568 -4.7739917 -22.325015
-3.4356115 -4.7399085 -22.121861
-4.0442037 -4.6956567 -21.86246
-4.6924468 -4.6564425 -21.520852
-5.34782 -4.624527 -21.15972
-6.0096508 -4.6049278 -20.745473
-6.6721698 -4.5731927 -20.324912
-7.2824346 -4.515835 -19.914783
-7.8511219 -4.4635101 -19.518868
-8.4380061 -4.3762834 -19.087749
-9.0215122 -4.285151 -18.635733
-9.6036325 -4.1414271 -18.11612
-10.170228 -4.0124872 -17.528008
-10.724521 -3.880576 -16.926077
-11.265611 -3.7536935 -16.332778
-11.800429 -3.6162085 -15.716495
-12.30923 -3.4778987 -15.091806
-12.796646 -3.3335576 -14.486471
-13.24077 -3.1964367 -13.911869
2.7623772 -4.36641 -23.12178
2.0884151 -4.3929743 -23.434433
1.5279137 -4.3957799 -23.578877
1.0904479 -4.4181601 -23.608127
0.64576297 -4.447006 -23.601739
0.18569596 -4.4372315 -23.560233
-0.27051865 -4.4153393 -23.486313
-0.72294626 -4.3929388 -23.412143
-1.1969332 -4.3608781 -23.313507
-1.7212988 -4.3168855 -23.189302
-2.2982062 -4.2818181 -23.034595
-2.8818528 -4.2406657 -22.839552
-3.4613413 -4.1802121 -22.615656
-4.0436523 -4.1171145 -22.346785
-4.6708966 -4.0732113 -22.016074
-5.3252509 -4.0411857 -21.654707
-5.9838318 -4.0182991 -21.2373
-6.6283461 -4.0072149 -20.75069
-7.2433066 -3.9865296 -20.299142
-7.8251463 -3.9433918 -19.855342
-8.4114846 -3.8586597 -19.385634
-9.0030193 -3.7525323 -18.866356
-9.5636959 -3.6391553 -18.322103
-10.135562 -3.5069348 -17.706354
-10.683967 -3.3868075 -17.097283
-11.225607 -3.2669834 -16.490645
-11.767926 -3.140707 -15.862017
-12.31003 -3.0093628 -15.190621
-12.802359 -2.8716861 -14.524486
-13.237096 -2.7538609 -13.938835
2.7670572 -3.918876 -23.521742
2.0916756 -3.9427524 -23.875073
1.5320534 -3.9547399 -24.023381
1.1128401 -3.9684364 -24.049034
0.64600871 -3.9811401 -24.039653
0.17081462 -3.966379 -24.023572
-0.29779335 -3.9364349 -23.970952
-0.75913134 -3.8961088 -23.892955
-1.2366848 -3.8439428 -23.799746
-1.7636491 -3.797053 -23.675365
-2.3342858 -3.7396831 -23.53119
-2.91377 -3.6764615 -23.325477
-3.4902908 -3.6139429 -23.068986
-4.0668021 -3.5465882 -22.800912
-4.670239 -3.4917806 -22.497603
-5.3114693 -3.4589285 -22.150894
-5.9160798 -3.452483 -21.704353
-6.5460599 -3.4615963 -21.179641
-7.1737047 -3.4662136 -20.660577
-7.7780112 -3.4285566 -20.180388
-8.3715827 -3.3663003 -19.656573
-8.9469959 -3.2472468 -19.087728
-9.5148013 -3.1313668 -18.501652
-10.082641 -3.0075239 -17.88123
-10.635906 -2.8905093 -17.267153
-11.173921 -2.7759781 -16.654815
-11.727777 -2.6541569 -15.980765
-12.273884 -2.5310468 -15.286157
-12.776587 -2.4153086 -14.583252
-13.213863 -2.3162797 -13.938835
2.770346 -3.4970692 -23.884045
2.101461 -3.5047111 -24.229504
1.545674 -3.5318027 -24.426665
1.1108106 -3.5367799 -24.437739
0.64068987 -3.516112 -24.433983
0.15470485 -3.4926704 -24.42014
-0.3316665 -3.4541628 -24.397274
-0.80584895 -3.3980401 -24.326865
-1.2825696 -3.3343839 -24.243333
-1.8071839 -3.2603255 -24.143503
-2.3753634 -3.1888524 -23.981285
-2.9450879 -3.1107615 -23.777314
-3.5197934 -3.0454788 -23.515588
-4.0921532 -2.9882159 -23.242297
-4.6642979 -2.9435978 -22.950752
-5.251188 -2.92486 -22.568172
-5.8374505 -2.9200827 -22.114951
-6.453094 -2.9216377 -21.604631
-7.0844505 -2.9271408 -21.061593
-7.6798917 -2.9164882 -20.503952
-8.2918315 -2.858808 -19.9133
-8.8860202 -2.7580327 -19.307185
-9.4482226 -2.6327459 -18.690904
-10.022724 -2.5099654 -18.058983
-10.578866 -2.3935045 -17.433156
-11.13001 -2.2770854 -16.775228
-11.678013 -2.1595494 -16.089146
-12.203023 -2.0616227 -15.377063
-12.721387 -1.9576694 -14.644088
-13.178547 -1.8690618 -13.940569
2.7888703 -3.0640498 -24.132173
2.1250489 -3.0821066 -24.491106
1.5809029 -3.0927543 -24.676895
1.0889851 -3.078546 -24.781406
0.6282296 -3.0399009 -24.800183
0.13536093 -3.017628 -24.785189
-0.36237887 -2.9716558 -24.75712
-0.8485782 -2.9165523 -24.713079
-1.3313124 -2.8322518 -24.640837
-1.8505035 -2.7497286 -24.526455
-2.415184 -2.6570216 -24.370381
-2.9788366 -2.5742513 -24.169723
-3.5300404 -2.5115545 -23.933754
-4.0950528 -2.4580675 -23.650365
-4.6306756 -2.4196838 -23.326583
-5.1870873 -2.3963074 -22.967263
-5.7635529 -2.386845 -22.503024
-6.3550473 -2.3856395 -22.009622
-6.9560768 -2.4119286 -21.442153
-7.5576268 -2.4138239 -20.840377
-8.1796271 -2.3436957 -20.189322
-8.7954605 -2.2574154 -19.541005
-9.381445 -2.1401611 -18.88366
-9.9515309 -2.0155123 -18.248988
-10.525131 -1.895899 -17.568309
-11.070572 -1.7864181 -16.881065
-11.606731 -1.6857238 -16.176059
-12.121294 -1.5823572 -15.453235
-12.629034 -1.487393 -14.699221
-13.115588 -1.4135705 -13.963682
2.8039635 -2.6266572 -24.347263
2.1508254 -2.6430397 -24.707069
1.6220655 -2.6457143 -24.887305
1.0936608 -2.6301805 -25.035117
0.61019148 -2.5938652 -25.103468
0.12131518 -2.5387935 -25.105107
-0.38193834 -2.4799322 -25.101924
-0.88046473 -2.3951479 -25.069503
-1.3546724 -2.3297206 -24.973552
-1.8737704 -2.2478892 -24.854535
-2.439239 -2.1503591 -24.687545
-2.9917984 -2.0656441 -24.510825
-3.5370292 -1.9952501 -24.276416
-4.0657445 -1.9446629 -23.993752
-4.5875989 -1.90351 -23.68595
-5.1276182 -1.8617031 -23.334644
-5.6835587 -1.8666241 -22.86482
-6.2386347 -1.8885039 -22.369456
-6.8179004 -1.906522 -21.814021
-7.4293992 -1.8866452 -21.169649
-8.0645083 -1.8278829 -20.467183
-8.6830385 -1.7345506 -19.791895
-9.2887393 -1.6391126 -19.102024
-9.8795417 -1.5207696 -18.407634
-10.446306 -1.4119335 -17.687596
-10.99971 -1.3109376 -16.987374
-11.525613 -1.2076347 -16.254564
-12.042896 -1.1000983 -15.497029
-12.542365 -1.0104971 -14.744982
-13.016692 -0.92835087 -13.992255
2.8050575 -2.1735742 -24.548663
2.1825984 -2.1903135 -24.898717
1.6545261 -2.1814663 -25.08898
1.1103111 -2.1651341 -25.257024
[...]
POINT_DATA 900
VECTORS normals float
0.19875999 -0.7897151 -0.58038309
0.13644185 -0.79621692 -0.58942534
0.095857589 -0.80110278 -0.59080087
0.054424203 -0.79985256 -0.59772392
0.024937957 -0.79778957 -0.60242004
-0.0086870469 -0.80013771 -0.59975343
-0.037837746 -0.79807982 -0.60136254
-0.070847695 -0.79282475 -0.6053177
-0.10337096 -0.78307078 -0.61328183
-0.13810295 -0.77192764 -0.62052823
-0.18152599 -0.75847287 -0.62591311
-0.22246185 -0.73726907 -0.63792245
-0.25616229 -0.71820756 -0.64696119
-0.27176328 -0.70386088 -0.65629611
-0.29105591 -0.6901187 -0.66258783
-0.3124918 -0.67307883 -0.67030871
-0.34723127 -0.64591088 -0.67987468
-0.37704763 -0.62754099 -0.68119556
-0.41043332 -0.60104245 -0.68577873
-0.43721868 -0.56850063 -0.69688368
-0.47453906 -0.53341172 -0.70020326
-0.51403336 -0.49577208 -0.69998554
-0.54584689 -0.45926406 -0.70080503
-0.58037686 -0.42047474 -0.6973978
-0.61838318 -0.38100257 -0.68734219
-0.65845256 -0.3345708 -0.67416809
-0.69182821 -0.29068684 -0.66096512
-0.71507314 -0.25333038 -0.65153214
-0.73918938 -0.21469431 -0.63836151
-0.75922075 -0.17679786 -0.62635962
0.20613373 -0.76771453 -0.60673164
0.1438413 -0.77957274 -0.60957036
0.098994619 -0.78615523 -0.61004919
0.057603444 -0.79120433 -0.60883294
0.023595984 -0.79198809 -0.6100804
-0.010833025 -0.78918377 -0.61406158
-0.051228675 -0.7856581 -0.61653627
-0.088238225 -0.77391617 -0.62711066
-0.12297433 -0.76566154 -0.63137922
-0.16327517 -0.75075787 -0.64008112
-0.20674598 -0.73826082 -0.64204911
-0.24164374 -0.71995852 -0.65059053
-0.27407176 -0.70354051 -0.65567935
-0.294418 -0.68668461 -0.66466705
-0.30840395 -0.67186855 -0.67340898
-0.33474746 -0.64907932 -0.68311066
-0.37045151 -0.62741377 -0.68492163
-0.40532946 -0.60135512 -0.68853471
-0.43862126 -0.57262984 -0.69260844
-0.47059221 -0.53942108 -0.6982606
-0.49911063 -0.51000607 -0.70055862
-0.54058131 -0.47711397 -0.6929171
-0.58927055 -0.42646326 -0.68621375
-0.63163685 -0.37439494 -0.67886915
-0.66962915 -0.31576115 -0.67222891
-0.7033908 -0.26745991 -0.65856403
-0.72176496 -0.22811581 -0.65346654
-0.74615319 -0.18583049 -0.63931405
-0.76723005 -0.15741597 -0.62175418
-0.78340267 -0.13182995 -0.60737231
0.22598211 -0.73986712 -0.63366295
0.16196431 -0.75746565 -0.63246609
0.10469995 -0.77075207 -0.62847368
0.064606381 -0.77458725 -0.62915865
0.020983118 -0.77596406 -0.63042802
-0.021650338 -0.77317259 -0.63382601
-0.067827293 -0.76611324 -0.63911655
-0.11246225 -0.74874448 -0.65324877
-0.14774385 -0.74127597 -0.65473787
-0.1800805 -0.73216846 -0.65688687
-0.22926306 -0.71237614 -0.66329382
-0.26133319 -0.69927075 -0.66537612
-0.29627681 -0.68345708 -0.667163
-0.31859894 -0.67039072 -0.6701276
-0.33448785 -0.65118985 -0.68122658
-0.3645807 -0.62583459 -0.68950125
-0.4002199 -0.59744465 -0.6948985
-0.43293077 -0.57319051 -0.69571804
-0.4705694 -0.53887322 -0.69869886
-0.49756787 -0.51889796 -0.69510512
-0.52902171 -0.48641503 -0.69536785
-0.56904492 -0.44258127 -0.69304379
-0.62103573 -0.39383987 -0.6776465
-0.67434046 -0.31423717 -0.66822148
-0.71122055 -0.25043438 -0.65684698
-0.72973847 -0.19859383 -0.65424938
-0.7519128 -0.16397514 -0.63854467
-0.76692851 -0.14192342 -0.62584216
-0.78187485 -0.12021147 -0.61173599
-0.79639018 -0.098530927 -0.59670289
0.25783778 -0.71137496 -0.65380834
0.18461753 -0.73302797 -0.65466507
0.11689475 -0.74906696 -0.65209993
0.064649432 -0.75446764 -0.65314549
0.01546679 -0.75639273 -0.65393487
-0.035993203 -0.75184175 -0.65836045
-0.090032303 -0.73936713 -0.66725589
-0.13111995 -0.73084917 -0.66982614
-0.16946114 -0.71903634 -0.6739953
-0.20473138 -0.70639129 -0.67756653
-0.24329705 -0.69378134 -0.67784511
-0.2779861 -0.67964269 -0.67882954
-0.31321537 -0.66184479 -0.68107093
-0.34787165 -0.64368099 -0.68165981
-0.36714386 -0.62847624 -0.68572808
-0.40089151 -0.59728785 -0.69464612
-0.43803975 -0.56483896 -0.69934121
-0.46896279 -0.53822224 -0.70027903
-0.49401463 -0.51747402 -0.69869176
-0.52595758 -0.48125631 -0.70125672
-0.56537753 -0.4403517 -0.69745153
-0.60331383 -0.39413353 -0.69330454
-0.6589579 -0.32875926 -0.67652926
-0.70921392 -0.25258013 -0.65819366
-0.73639889 -0.20341611 -0.64524303
-0.74543073 -0.17061056 -0.64437959
-0.76240029 -0.13937122 -0.63191887
-0.77818456 -0.11575249 -0.6172764
-0.79679145 -0.087910167 -0.59782538
-0.80974021 -0.062192751 -0.58348338
0.29339707 -0.67756108 -0.67441021
0.20352954 -0.71533498 -0.66848454
0.13448411 -0.72407335 -0.67648489
0.066395209 -0.73780544 -0.67174013
0.0046354792 -0.73487988 -0.67818145
-0.062217827 -0.72703771 -0.68377271
-0.11207537 -0.71518321 -0.68989281
-0.15492404 -0.70773033 -0.68928682
-0.18805831 -0.69835173 -0.69060765
-0.21563078 -0.69178027 -0.6891614
-0.25335117 -0.68040283 -0.68765193
-0.28881928 -0.66443262 -0.68928421
-0.3272277 -0.64336871 -0.69209734
-0.3646599 -0.62178688 -0.693112
-0.3984417 -0.60158826 -0.6923408
-0.43030851 -0.5731989 -0.69733608
-0.4678184 -0.53907012 -0.70039228
-0.49877071 -0.51102042 -0.70006136
-0.52160405 -0.48436596 -0.7023666
-0.5542162 -0.44515334 -0.70333698
-0.59664533 -0.39246993 -0.69998693
-0.63962616 -0.33757229 -0.69059636
-0.69284891 -0.26301927 -0.67140245
-0.73058518 -0.20807256 -0.65034691
-0.74730639 -0.17353835 -0.64141842
-0.75439284 -0.14853126 -0.63939808
-0.76996323 -0.11873238 -0.62694438
-0.78750489 -0.090302616 -0.60965686
-0.80510538 -0.060091181 -0.59007998
-0.820529 -0.027831476 -0.57092693
0.33269672 -0.63838131 -0.69410532
0.23430558 -0.68082286 -0.69396047
0.1470763 -0.70353026 -0.69527961
0.075651455 -0.70638583 -0.70377263
-0.0095099926 -0.70087159 -0.71322407
-0.074152003 -0.69576369 -0.7144329
-0.12703026 -0.68895119 -0.71358922
-0.17371774 -0.68183616 -0.71057836
-0.19727087 -0.67819648 -0.707908
-0.23035902 -0.67058816 -0.70515689
-0.26520273 -0.65980325 -0.70308405
-0.30774754 -0.64193986 -0.70228532
-0.3512078 -0.62061219 -0.70106604
-0.39461548 -0.59107586 -0.70349694
-0.42679605 -0.57239866 -0.70014634
-0.45865043 -0.54548922 -0.70148506
-0.4983651 -0.50732234 -0.70303362
-0.5252678 -0.48171854 -0.70145634
-0.55555904 -0.44037487 -0.70528301
-0.58841538 -0.3929479 -0.70665358
-0.63150141 -0.33643129 -0.69858425
-0.66719136 -0.28381593 -0.68869747
-0.71202351 -0.21793764 -0.66747712
-0.74545669 -0.16688827 -0.64532366
-0.75562527 -0.14540758 -0.63866038
-0.76248951 -0.12386793 -0.63503266
-0.77919006 -0.090359933 -0.62024023
-0.79591213 -0.061306616 -0.60230008
-0.81359981 -0.030317738 -0.5806343
-0.82710847 -0.0099615961 -0.56195405
0.37434901 -0.59126168 -0.71433357
0.26156922 -0.63219589 -0.72932153
0.14196051 -0.66372389 -0.73438261
0.073438902 -0.67129764 -0.73754064
-0.0062246005 -0.67662174 -0.73630447
-0.080983476 -0.66610709 -0.74144657
-0.14022653 -0.66106429 -0.73710957
-0.18284705 -0.65657663 -0.73176094
-0.20498855 -0.65572251 -0.72664137
-0.23689307 -0.64792897 -0.7239266
-0.28339593 -0.63215406 -0.7211574
-0.32409383 -0.61569669 -0.71824841
-0.38052108 -0.59024777 -0.71190679
-0.41754161 -0.56699524 -0.7100531
-0.44718431 -0.54644955 -0.70810951
-0.48254406 -0.51801147 -0.70626861
-0.52176222 -0.481547 -0.70418511
-0.56297698 -0.43994853 -0.69964434
-0.58868912 -0.39736991 -0.70394763
-0.61922469 -0.34590902 -0.70491682
-0.65676986 -0.28641276 -0.69758231
-0.69756735 -0.23023243 -0.67852253
-0.73522489 -0.17421965 -0.65505105
-0.75591858 -0.13974281 -0.63957724
-0.76358503 -0.11635519 -0.63513729
-0.77060274 -0.093338471 -0.63044376
-0.78602745 -0.062916793 -0.61498156
-0.80310746 -0.032547475 -0.5949446
-0.81900705 -0.0025492485 -0.57377779
-0.8309293 0.012487504 -0.55623787
0.39432816 -0.55329753 -0.73373506
0.29706387 -0.56374957 -0.77067469
0.1671689 -0.59401767 -0.78689108
0.079057454 -0.61550302 -0.78415939
-0.0085053502 -0.62688119 -0.77906844
-0.081534095 -0.62996657 -0.77233044
-0.14640459 -0.63530561 -0.75825621
-0.18611173 -0.62932841 -0.75452513
-0.21362032 -0.62189239 -0.75340309
-0.24992683 -0.61477532 -0.74805608
-0.29835724 -0.59785144 -0.74401385
-0.35097581 -0.57069311 -0.74237818
-0.40194453 -0.55191041 -0.73064047
-0.44089939 -0.53966987 -0.71719186
-0.47391014 -0.51784487 -0.71221195
-0.5118566 -0.48552378 -0.70870973
-0.55102799 -0.44897328 -0.70341392
-0.59003657 -0.39951603 -0.70160088
-0.62832886 -0.34847562 -0.69553403
-0.65011746 -0.29955964 -0.69829171
-0.67663291 -0.24438722 -0.69458101
-0.72083789 -0.19173933 -0.66605462
-0.74472234 -0.15106152 -0.65005311
-0.76405723 -0.11814783 -0.63423785
-0.77296119 -0.091373011 -0.62783913
-0.77807398 -0.068937948 -0.62437844
-0.79266199 -0.039951122 -0.60835094
-0.80845577 -0.0055980744 -0.58853032
-0.82407046 0.025377937 -0.56591858
-0.83430655 0.046182614 -0.54936303
0.43300801 -0.46921423 -0.76963762
0.31922032 -0.50636561 -0.80105696
0.21199571 -0.53028085 -0.82088979
0.097997705 -0.55738255 -0.82445202
0.013441539 -0.57081957 -0.8209655
-0.071658111 -0.58331301 -0.80908037
-0.13404084 -0.58802291 -0.7976604
-0.18019826 -0.58942658 -0.78746739
-0.22468895 -0.57699134 -0.78523619
-0.26701265 -0.56536175 -0.78042958
-0.31940668 -0.54488506 -0.77529326
-0.36837311 -0.52276135 -0.76877944
-0.40916387 -0.51447695 -0.75359034
-0.45287032 -0.50516946 -0.73465114
-0.49386097 -0.48872858 -0.71919797
-0.53848307 -0.45299647 -0.71051402
-0.57816703 -0.41038989 -0.70519715
-0.62038234 -0.36949272 -0.69180986
-0.6436344 -0.3357428 -0.68775833
-0.67039048 -0.27862695 -0.68770898
-0.69735658 -0.22759787 -0.67962712
-0.72963982 -0.16024185 -0.66479191
-0.75728504 -0.12195706 -0.64159632
-0.7689301 -0.09364078 -0.63243806
-0.77880808 -0.060036163 -0.6243826
-0.78600251 -0.029587171 -0.61751491
-0.7980545 -0.0029504269 -0.60257806
-0.81175984 0.023615896 -0.58351371
-0.82603298 0.056039689 -0.56082891
-0.83642688 0.085355373 -0.5413913
0.45050525 -0.41420442 -0.79087276
0.34425196 -0.42769905 -0.83580148
0.25285399 -0.46105199 -0.85058564
0.14486155 -0.49780028 -0.85510819
0.043466041 -0.50585565 -0.86152236
-0.054042133 -0.51788925 -0.85373894
-0.12340469 -0.5316008 -0.83795697
-0.17350599 -0.53315384 -0.82803542
-0.23281052 -0.52358421 -0.81954795
-0.28747858 -0.50387458 -0.81453451
-0.33417979 -0.48815362 -0.80624433
-0.37663678 -0.4753436 -0.79510578
-0.41507744 -0.46135712 -0.7841303
-0.47284104 -0.45463533 -0.75480333
-0.52045947 -0.43633437 -0.73398519
-0.56394828 -0.40003228 -0.72245174
-0.59638557 -0.37157848 -0.71151506
-0.63945718 -0.33597497 -0.69153115
-0.66339966 -0.30547348 -0.68307162
-0.69586889 -0.24632847 -0.67460268
-0.71798313 -0.19342965 -0.6686443
-0.742171 -0.13004794 -0.65747223
-0.76397681 -0.090216 -0.63890571
-0.77768751 -0.057261102 -0.62603777
-0.78575659 -0.020032167 -0.61821136
-0.78990696 0.010729607 -0.61313284
-0.8011513 0.041353988 -0.59703135
-0.8178145 0.073373457 -0.57078523
-0.82858431 0.10631048 -0.5496782
-0.83398411 0.13197474 -0.53577343
0.4736133 -0.33926031 -0.81276866
0.36778275 -0.37437633 -0.8512216
0.28635016 -0.38514665 -0.8773059
0.18266221 -0.41806244 -0.88986421
0.075467759 -0.43417285 -0.89766283
-0.027739447 -0.45374 -0.89070227
-0.10464846 -0.46665516 -0.87822643
-0.17474342 -0.47405844 -0.86297934
-0.24075415 -0.45464353 -0.85751775
-0.29763992 -0.43457542 -0.85003216
-0.34118859 -0.4314482 -0.83513041
-0.37698881 -0.42759465 -0.82160955
-0.42588352 -0.40655786 -0.80829075
-0.47714603 -0.39632385 -0.78438451
-0.53355891 -0.37189353 -0.7596118
-0.58085453 -0.35439191 -0.73281265
-0.62127581 -0.32418141 -0.71338824
-0.65949113 -0.28932865 -0.6938014
-0.69671597 -0.25858142 -0.6691207
-0.71669419 -0.21320889 -0.66399654
-0.74024524 -0.15198517 -0.6549332
-0.76300967 -0.095376041 -0.63931186
-0.77379312 -0.054036658 -0.63112935
-0.78555257 -0.018913158 -0.61850582
-0.79210595 0.03121973 -0.60958469
-0.79541035 0.072630772 -0.60170354
-0.80251251 0.095577457 -0.58893007
-0.81930299 0.13165658 -0.55804046
-0.83119639 0.15448993 -0.53408373
-0.83157885 0.17455302 -0.52726451
0.47990813 -0.27502987 -0.83309469
0.38375942 -0.30547776 -0.87144251
0.30120259 -0.30676793 -0.9028679
0.20282611 -0.3005765 -0.9319417
0.10282855 -0.32629742 -0.93965753
0.0058629577 -0.33050903 -0.94378462
-0.076540781 -0.35750344 -0.93077
-0.15069705 -0.37011656 -0.91668104
-0.22005718 -0.37482016 -0.9006024
-0.28402902 -0.37412051 -0.88281445
-0.33341765 -0.36500823 -0.86925351
-0.36958215 -0.37154444 -0.8516829
-0.4205241 -0.35784643 -0.83372982
-0.49015411 -0.32861683 -0.8073165
-0.53615117 -0.30218306 -0.78817975
-0.59634594 -0.28294549 -0.75120794
-0.63876198 -0.26184825 -0.72347676
-0.67451205 -0.23715123 -0.69913718
-0.7138578 -0.19494961 -0.67260813
-0.74175135 -0.14758793 -0.65423446
-0.76206518 -0.082590018 -0.64221145
-0.77806622 -0.029643227 -0.62748246
-0.78576477 0.0032626873 -0.61851684
-0.7915091 0.041250197 -0.6097637
-0.79899246 0.088931646 -0.59472869
-0.80017403 0.12686451 -0.58619699
-0.80439693 0.16002513 -0.57213419
-0.81873862 0.18312064 -0.54418187
-0.82906867 0.19912351 -0.5224892
-0.83155373 0.20475316 -0.51632793
0.5075786 -0.20011109 -0.83804506
0.40298493 -0.20253608 -0.89251459
0.30815354 -0.20797427 -0.92832543
0.23487415 -0.21983781 -0.94683973
0.13785754 -0.22556414 -0.96442528
0.044402851 -0.2078329 -0.97715601
-0.044354173 -0.22798252 -0.97265445
-0.12990113 -0.24812536 -0.95997891
-0.20711924 -0.2720107 -0.93974028
-0.27217037 -0.28194641 -0.92001604
-0.33279455 -0.2975807 -0.89481479
-0.36658092 -0.30068398 -0.88045873
-0.43218188 -0.27861069 -0.8576683
-0.49557576 -0.2532839 -0.83081402
-0.54782859 -0.2155234 -0.80835234
-0.59646378 -0.1894847 -0.77995289
-0.64610363 -0.17240364 -0.74352343
-0.68947103 -0.13369092 -0.71186827
-0.73099301 -0.09309256 -0.67600517
-0.76374836 -0.034596711 -0.64458631
-0.77771113 0.019979382 -0.62830424
-0.78675328 0.044534282 -0.61565898
-0.79161285 0.070735602 -0.6069148
-0.79682892 0.10894984 -0.59430094
-0.79969637 0.14238886 -0.5832762
-0.80080724 0.1709554 -0.57400524
-0.80517467 0.18715273 -0.56273227
-0.8154737 0.21006966 -0.53932679
-0.82734267 0.21671786 -0.51820602
-0.82918916 0.22256107 -0.51274937
0.51880687 -0.089042257 -0.85024168
0.4252454 -0.10718826 -0.89870853
0.32683371 -0.11519252 -0.9380354
0.24068355 -0.1146053 -0.96381381
0.14523039 -0.11013888 -0.98324847
0.072876588 -0.11876627 -0.9902442
-0.012150225 -0.12790127 -0.99171248
-0.093440766 -0.13144071 -0.98691041
-0.17676097 -0.15908658 -0.97131201
-0.24339378 -0.17299615 -0.95437508
-0.3154655 -0.19363545 -0.92897085
-0.36460132 -0.18227037 -0.91315026
-0.4367918 -0.179131 -0.88154694
-0.50957731 -0.15220213 -0.84685623
-0.56040105 -0.12832536 -0.81821957
-0.6053265 -0.10734122 -0.78870634
-0.65668292 -0.061793618 -0.75163095
-0.70182704 -0.024650024 -0.71192077
-0.74419956 0.030065697 -0.66728035
-0.76534521 0.059898149 -0.64082675
-0.77912468 0.092280191 -0.62003959
-0.78409544 0.12592845 -0.60773051
-0.78999482 0.13795212 -0.59739217
-0.79441943 0.16705256 -0.58394453
-0.79598735 0.19034089 -0.57460811
-0.7996095 0.20379124 -0.56488386
-0.802403 0.21198612 -0.55786317
-0.81318671 0.2266043 -0.53607636
-0.82476984 0.23426191 -0.51466112
-0.83070232 0.23701262 -0.50374466
0.52741739 -0.026237843 -0.84920108
0.42298341 -0.025190362 -0.90578722
0.34108381 -0.027804239 -0.93962161
0.25956701 -0.033376612 -0.96514816
0.17009022 -0.034536419 -0.98482311
0.084201294 -0.036588436 -0.9957768
0.0045105832 -0.045026904 -0.99897559
-0.062301488 -0.059733385 -0.99626826
-0.13509436 -0.059672857 -0.98903421
-0.21712286 -0.075914115 -0.97318791
-0.2937991 -0.095746436 -0.95105978
-0.35710375 -0.089590575 -0.92975827
-0.42377209 -0.078416388 -0.90236804
-0.49475874 -0.059869889 -0.86696562
-0.56413621 -0.052406349 -0.82401694
-0.60342315 -0.021171912 -0.79714005
-0.65776892 0.033853178 -0.75245864
-0.7011013 0.087137071 -0.70771752
-0.73902128 0.10792261 -0.6649814
-0.75867341 0.15127231 -0.63366501
-0.77362095 0.16083608 -0.61289671
-0.77765094 0.18994567 -0.59931599
-0.78227915 0.20003889 -0.5899354
-0.78851105 0.21613645 -0.57579108
-0.79119759 0.22590761 -0.56830637
-0.79412309 0.23029913 -0.56243295
-0.80123669 0.23276372 -0.55121757
-0.81029081 0.24522675 -0.53225242
-0.822493 0.25743482 -0.50718101
-0.8271786 0.26780548 -0.49402002
0.52555995 0.035278958 -0.85002478
0.44328143 0.041996918 -0.89539814
0.3543317 0.045752573 -0.93399987
0.27885269 0.042728109 -0.95938287
0.17876083 0.042050757 -0.98299354
0.099922747 0.042257296 -0.99409746
0.02971696 0.039327815 -0.99878437
-0.040730097 0.052039986 -0.99781406
-0.11133468 0.047973961 -0.99262434
-0.18331939 0.039499879 -0.98225952
-0.26401148 0.032753489 -0.96396325
-0.33233307 0.029548518 -0.94269911
-0.40058084 0.038568876 -0.91544931
-0.50009349 0.060114215 -0.86388239
-0.56967026 0.059586041 -0.81971049
-0.60935897 0.094177295 -0.78728158
-0.64636465 0.1253424 -0.75266329
-0.69943405 0.18245899 -0.69101427
-0.72627737 0.20266092 -0.65684834
-0.74796063 0.22251479 -0.62533356
-0.75943417 0.23539007 -0.60650742
-0.76995835 0.23228462 -0.59431304
-0.77480867 0.24177207 -0.58413851
-0.77617308 0.25678329 -0.57586256
-0.78599553 0.25524436 -0.563082
-0.78747023 0.25752807 -0.55997315
-0.79260105 0.26236837 -0.55040568
-0.80656222 0.27376285 -0.52393825
-0.81473862 0.28682985 -0.50391429
-0.82253877 0.30457312 -0.48027615
0.5340843 0.086594896 -0.84098471
0.44998228 0.10154334 -0.88724568
0.3693957 0.10338038 -0.92350382
0.28829473 0.10444891 -0.95182802
0.19672506 0.10968684 -0.97430388
0.11880252 0.11966258 -0.98568089
0.040403379 0.12090472 -0.99184153
-0.01977979 0.1364625 -0.99044775
-0.085444407 0.15358803 -0.98443383
-0.16222521 0.15246272 -0.97490415
-0.23231284 0.15107395 -0.96083683
-0.30823014 0.14769567 -0.93977666
-0.3954579 0.1544498 -0.90540505
-0.48285423 0.17220007 -0.85860289
-0.54597352 0.19921812 -0.81377211
-0.59262475 0.21213155 -0.77704319
-0.63791207 0.23084994 -0.73469483
-0.6841303 0.25296603 -0.6840862
-0.70772497 0.28248048 -0.64755706
-0.73040774 0.28333431 -0.621471
-0.7424333 0.29261948 -0.60263309
-0.75472901 0.29015532 -0.58838254
-0.76071123 0.28637564 -0.58250101
-0.76855107 0.28739576 -0.57160557
-0.77538682 0.28093506 -0.5655535
-0.77920229 0.28502603 -0.55821496
-0.78753806 0.29484522 -0.54115626
-0.79824456 0.3119317 -0.51527104
-0.80723842 0.33028977 -0.48915723
-0.81510169 0.35118955 -0.46073326
0.54045051 0.11569814 -0.83338298
0.45989321 0.14395906 -0.87622715
0.38352736 0.15644582 -0.91018211
0.30224265 0.16025088 -0.93966432
0.2101596 0.17034272 -0.96271299
0.12517262 0.18502721 -0.97472906
0.04064365 0.20367487 -0.97819458
-0.028158049 0.22176913 -0.97469256
-0.08400048 0.2255034 -0.97061431
-0.13754416 0.24057763 -0.96083506
-0.21444385 0.25414103 -0.94309394
-0.30445793 0.26030339 -0.91626826
-0.37626937 0.27875495 -0.88358193
-0.46129703 0.28941312 -0.83871634
-0.51635071 0.29366364 -0.80445237
-0.57090875 0.29912397 -0.76458358
-0.62295595 0.31135578 -0.71762348
-0.66829804 0.31774168 -0.67262021
-0.69473909 0.32993179 -0.63912644
-0.71055321 0.34065913 -0.61568295
-0.72701043 0.33475137 -0.59949759
-0.73988292 0.32603259 -0.58845223
-0.74947823 0.31864307 -0.58030076
-0.75611889 0.31565387 -0.5732773
-0.76422529 0.31153849 -0.56471539
-0.77077184 0.3070991 -0.55821225
-0.78067585 0.32886031 -0.53140956
-0.79029374 0.34482827 -0.50648719
-0.79851783 0.3739619 -0.47172213
-0.81052071 0.39455343 -0.43287848
0.53712028 0.15197706 -0.82970162
0.46356693 0.1745363 -0.86870178
0.38594502 0.20456674 -0.89955483
0.30671063 0.21966421 -0.92610811
0.23349469 0.24312581 -0.94147229
0.13100154 0.26816593 -0.95442424
0.056186295 0.28542668 -0.95675217
-0.030851485 0.2840233 -0.9583209
-0.084511911 0.30295814 -0.94924923
-0.13493627 0.33329775 -0.93311565
-0.21112949 0.34392651 -0.91495295
-0.27890272 0.36237695 -0.88932346
-0.35710787 0.37808682 -0.85412196
-0.43949076 0.37502188 -0.81621471
-0.50475509 0.37528719 -0.77741998
-0.55698572 0.37623847 -0.74041308
-0.60442276 0.37945025 -0.70049314
-0.64355003 0.3879803 -0.65978379
-0.67305861 0.38600368 -0.63086708
-0.68904083 0.38665934 -0.61295782
-0.70438173 0.37822684 -0.60065866
-0.72522303 0.35931201 -0.58732141