# vtk DataFile Version 2.0
Grain example
ASCII
DATASET UNSTRUCTURED_GRID
POINTS 900 float
15.800293 11.474034 8.8761246
15.827276 10.614733 9.0925391
15.811038 9.7043676 9.2529119
15.792215 8.7328248 9.4501556
15.8405 7.770379 9.5828666
15.853537 6.9194148 9.5793812
15.824893 6.1937989 9.5421232
15.768665 5.6175185 9.5330634
15.703686 5.0601019 9.5254796
15.66761 4.5338529 9.4958067
15.627929 4.0210882 9.4607054
15.588531 3.5101438 9.4101658
15.559636 3.0433119 9.3845818
15.51288 2.5782616 9.357319
15.467681 2.1312879 9.3350231
15.397362 1.6908785 9.3138453
15.28788 1.2391195 9.3134463
15.161448 0.79644633 9.3139171
15.023021 0.37471311 9.2775328
14.889475 -0.040032173 9.2350843
14.749068 -0.45143133 9.1798613
14.618071 -0.83819385 9.1130122
14.445384 -1.23412 9.0623421
14.266975 -1.6103604 9.067562
14.075521 -1.9668503 9.0984764
13.8767 -2.2949477 9.1183835
13.643647 -2.6406511 9.1193153
13.413378 -2.9950345 9.1084485
13.173443 -3.3555015 9.0945765
12.955489 -3.7032038 9.0676002
15.436567 11.55614 9.1911359
15.479542 10.694454 9.4540972
15.463106 9.7652802 9.6282062
15.438952 8.786494 9.8306206
15.486335 7.8114752 9.9925724
15.511391 6.920891 10.040126
15.468791 6.2639769 10.064521
15.41467 5.6771301 10.058344
15.37343 5.1449394 10.050477
15.335983 4.6354079 10.036182
15.293686 4.1240501 10.028568
15.242809 3.6301838 10.02261
15.21029 3.1666531 10.022789
15.186189 2.7034453 10.006781
15.166846 2.2602777 9.9859103
15.113098 1.8235379 9.980703
15.035456 1.3711337 9.9603577
14.932833 0.92808748 9.9417048
14.791244 0.49852952 9.9145779
14.659144 0.086415939 9.8751924
14.535888 -0.32128967 9.8208768
14.404518 -0.72755996 9.7835303
14.231994 -1.1499304 9.7626227
14.067349 -1.549132 9.7431731
13.889541 -1.9425268 9.7314934
13.713591 -2.2986754 9.7274459
13.488024 -2.6467698 9.7262806
13.256664 -3.0053905 9.7128624
13.016729 -3.365858 9.6989904
12.791451 -3.725555 9.6728459
15.066515 11.634655 9.4936334
15.111854 10.785169 9.7624594
15.100458 9.8244812 9.9912965
15.089398 8.838046 10.234132
15.131358 7.847892 10.416386
15.148932 7.0121882 10.520312
15.117247 6.3391515 10.580026
15.071139 5.7737392 10.575371
15.040369 5.2417562 10.571408
14.993065 4.7272399 10.570033
14.945436 4.2144615 10.568224
14.906609 3.7280903 10.569995
14.877007 3.2711915 10.57649
14.858956 2.825895 10.574036
14.826052 2.3816783 10.591768
14.782918 1.9464375 10.607057
14.71632 1.5069386 10.625456
14.638835 1.0648809 10.622719
14.537383 0.630938 10.574955
14.414657 0.21026664 10.536415
14.29293 -0.20802939 10.500044
14.160563 -0.62270399 10.476043
14.028732 -1.0443151 10.452302
13.858199 -1.4619354 10.435733
13.686603 -1.8656825 10.418642
13.512689 -2.2454095 10.399743
13.330895 -2.6362464 10.348358
13.103068 -3.0118673 10.315585
12.866597 -3.379117 10.29952
12.63446 -3.7354685 10.260601
14.6887 11.716004 9.7815699
14.739184 10.857979 10.07549
14.752329 9.8786435 10.349299
14.748672 8.8849519 10.621698
14.769 7.8976166 10.843692
14.776871 7.1426763 11.002567
14.75953 6.4639029 11.072957
14.728577 5.8853759 11.0959
14.6932 5.3474642 11.098639
14.651298 4.8201787 11.106213
14.60332 4.3081069 11.103813
14.568511 3.8240155 11.113531
14.548731 3.3787199 11.123938
14.506321 2.9387658 11.156273
14.462954 2.4988691 11.170609
14.419208 2.0623766 11.184591
14.369592 1.6210483 11.202975
14.314721 1.1821656 11.211554
14.2377 0.74941942 11.210725
14.149219 0.32464762 11.188816
14.047513 -0.10280145 11.15745
13.92246 -0.52056551 11.147117
13.796908 -0.93650305 11.127941
13.661425 -1.3550566 11.105631
13.494544 -1.7757342 11.087632
13.32304 -2.1715904 11.055408
13.14144 -2.5819214 10.994178
12.954595 -2.9683867 10.933593
12.724624 -3.357592 10.887138
12.489912 -3.7359179 10.808534
14.311277 11.758363 10.049813
14.376964 10.911384 10.406417
14.392567 9.9400814 10.701987
14.406393 8.924339 10.989291
14.392988 8.0698867 11.258255
14.42351 7.3084953 11.443642
14.398312 6.6126047 11.545634
14.378437 5.9975401 11.618143
14.34554 5.4565116 11.625291
14.310393 4.9209921 11.62873
14.266287 4.4001467 11.632788
14.221834 3.919222 11.656727
14.181654 3.4755568 11.692929
14.1377 3.0464891 11.7235
14.096662 2.6124384 11.742939
14.052391 2.1765525 11.755979
14.005652 1.729317 11.78731
13.966722 1.2901338 11.834489
13.913672 0.84896553 11.838221
13.834768 0.42992849 11.8272
13.751149 0.0015769569 11.789948
13.662709 -0.42076185 11.752209
13.558257 -0.84464036 11.72406
13.44508 -1.2529548 11.713253
13.297687 -1.6758492 11.699997
13.132079 -2.0885649 11.685313
12.957688 -2.5129031 11.636353
12.772127 -2.9146252 11.568473
12.57344 -3.3156496 11.499783
12.335739 -3.6950725 11.399156
13.928963 11.790709 10.307593
14.006957 10.949512 10.720754
14.035052 9.9997755 11.042615
14.047168 9.0554478 11.334459
14.02329 8.2547795 11.637773
14.036688 7.495746 11.855311
14.04289 6.7838917 11.999533
14.029932 6.1341488 12.097671
13.997422 5.5637896 12.142785
13.946211 5.020521 12.163129
13.888104 4.4804288 12.186781
13.848468 4.021238 12.222326
13.812549 3.5787814 12.250649
13.77146 3.1507351 12.278732
13.728071 2.7219881 12.31042
13.678702 2.2795988 12.361508
13.643174 1.831787 12.406166
13.605574 1.3936582 12.44792
13.561047 0.95581804 12.460259
13.500631 0.53067601 12.443546
13.437364 0.10421695 12.413143
13.357006 -0.31293531 12.37528
13.281961 -0.73944022 12.338483
13.19818 -1.1534063 12.302496
13.088316 -1.5773363 12.280151
12.92981 -2.0029178 12.245314
12.756113 -2.4485776 12.195351
12.579567 -2.863281 12.143318
12.392233 -3.2711383 12.063283
12.163953 -3.6612023 11.97145
13.505053 11.821782 10.566417
13.591992 10.977824 11.012588
13.64398 10.079039 11.353454
13.642779 9.2577561 11.673688
13.64043 8.4575384 11.994033
13.651753 7.6828596 12.254407
13.671062 6.9663829 12.455579
13.657348 6.2866575 12.565163
13.625115 5.671523 12.646343
13.563743 5.1059091 12.701382
13.503723 4.5850163 12.73156
13.477753 4.1310981 12.777686
13.441898 3.6906295 12.80635
13.39755 3.2476178 12.850813
13.349833 2.8124997 12.905862
13.311349 2.3814116 12.962863
13.277595 1.9400359 13.011627
13.24223 1.5052851 13.049943
13.208059 1.0627631 13.073519
13.14832 0.63800608 13.058149
13.093893 0.2099254 13.028329
13.03799 -0.20813526 12.996777
12.976259 -0.63161337 12.961553
12.904516 -1.050515 12.923827
12.832586 -1.4731412 12.885339
12.715434 -1.9021173 12.824216
12.551897 -2.3697647 12.758962
12.379649 -2.8067636 12.696547
12.181596 -3.2300522 12.602376
11.991366 -3.6311137 12.485185
13.076994 11.85774 10.81783
13.170851 11.023436 11.270224
13.204517 10.237926 11.669258
13.199586 9.453139 12.018693
13.18631 8.6419 12.349248
13.192699 7.8674478 12.66489
13.232319 7.1444019 12.904254
13.234179 6.4569267 13.050911
13.215708 5.8007425 13.153963
13.167447 5.2208481 13.208292
13.125813 4.7103101 13.258651
13.10529 4.2505831 13.298402
13.061226 3.7931014 13.374175
13.018547 3.3434246 13.437281
12.979624 2.905754 13.492724
12.948791 2.477798 13.548549
12.914116 2.0446472 13.604535
12.881535 1.6132855 13.648554
12.841212 1.164563 13.683931
12.792597 0.74490945 13.674255
12.742527 0.31417192 13.644402
12.692533 -0.1056641 13.615888
12.64912 -0.52840387 13.58349
12.596785 -0.94232949 13.551142
12.528054 -1.3682696 13.510328
12.455012 -1.8011849 13.436232
12.331472 -2.2729963 13.342009
12.165931 -2.7484201 13.255888
11.975918 -3.1891709 13.13477
11.79389 -3.5958347 13.016508
12.612784 11.899426 11.024877
12.712169 11.067059 11.52042
12.741195 10.405301 11.980724
12.727367 9.6353777 12.363265
12.718169 8.8294732 12.718393
12.714699 8.0684307 13.040877
12.756787 7.3241685 13.306907
12.763027 6.6153618 13.516229
12.747534 5.9512183 13.640288
12.723483 5.3506753 13.714475
12.707586 4.844938 13.798489
12.688675 4.3640686 13.879452
12.666351 3.9003378 13.947663
12.63761 3.4474821 14.012859
12.608565 3.0039542 14.078496
12.579221 2.5750333 14.137069
12.546167 2.1391838 14.195866
12.516775 1.7153611 14.238734
12.475787 1.2692798 14.289297
12.435617 0.84747906 14.287475
12.387929 0.42171401 14.262734
12.343256 -0.00023123576 14.236095
12.302492 -0.42297721 14.200683
12.257422 -0.83790939 14.174055
12.2104 -1.2611876 14.142771
12.142172 -1.7016288 14.060897
12.05418 -2.1762009 13.969776
11.920547 -2.6624884 13.846548
11.764714 -3.1360387 13.682183
11.578514 -3.5559283 13.55448
12.126547 11.930432 11.23708
12.180332 11.210338 11.738429
12.227283 10.550002 12.225141
12.229273 9.8153004 12.666104
12.237864 9.043316 13.050934
12.234799 8.2725545 13.397392
12.230702 7.5226161 13.70372
12.268828 6.7929922 13.947586
12.257977 6.1115807 14.102906
12.248635 5.4901342 14.235332
12.256156 4.972651 14.354834
12.24746 4.4825362 14.454354
12.236704 4.009948 14.535667
12.223523 3.5523463 14.605895
12.210219 3.1062843 14.669058
12.19012 2.6750671 14.728919
12.162757 2.2418417 14.790815
12.128399 1.8106816 14.847629
12.09344 1.3704311 14.894205
12.06458 0.9517309 14.906305
12.016779 0.53102907 14.889986
11.98076 0.11097631 14.863959
11.942013 -0.31424407 14.832143
11.90065 -0.73220152 14.804195
11.857803 -1.1546205 14.772915
11.803023 -1.6121642 14.698757
11.730274 -2.0934729 14.611836
11.637195 -2.5727507 14.461931
11.50641 -3.0658778 14.278712
11.358863 -3.5139193 14.108753
11.621714 11.987387 11.456937
11.655562 11.345859 11.944867
11.69183 10.691228 12.435999
11.713357 9.9784724 12.916791
11.712322 9.2477839 13.344312
11.712143 8.4934461 13.738535
11.704304 7.7266145 14.092454
11.740137 6.9887595 14.371461
11.754731 6.2831842 14.589055
11.765926 5.6522813 14.767876
11.786722 5.1023666 14.901171
11.793589 4.6056231 15.013604
11.789084 4.1282523 15.114457
11.79311 3.6612223 15.200441
11.786029 3.2078335 15.274723
11.767904 2.7677844 15.3374
11.741398 2.3341405 15.400893
11.708796 1.8985475 15.460584
11.68156 1.4650895 15.506525
11.659636 1.0474601 15.536071
11.627516 0.64274138 15.531323
11.601932 0.22483626 15.505305
11.570321 -0.20508246 15.478556
11.533034 -0.62374515 15.442167
11.490214 -1.0606258 15.409355
11.430634 -1.5331064 15.336499
11.384722 -2.0120164 15.232513
11.321034 -2.4842725 15.10733
11.213338 -2.981039 14.955811
[...]
POINT_DATA 900
VECTORS normals float
0.6894453 0.20910749 0.69349783
0.71975502 0.17028481 0.6730199
0.74757426 0.12716352 0.65189122
0.77063301 0.10016003 0.62935899
0.80015688 0.043988347 0.59817556
0.81817669 -0.024630601 0.57443907
0.82958953 -0.057316304 0.55542421
0.83433235 -0.068645105 0.54697109
0.83998839 -0.07165865 0.53785178
0.84595256 -0.072659128 0.52828489
0.85084903 -0.077491542 0.5196643
0.86010031 -0.10664809 0.49885232
0.86747824 -0.12421574 0.4817177
0.87666768 -0.14917092 0.45738585
0.88095036 -0.17190789 0.44087882
0.88451911 -0.20520419 0.4189477
0.88646595 -0.2399377 0.3957373
0.8854639 -0.27074739 0.37768974
0.88483574 -0.29066296 0.36411641
0.88430435 -0.31554504 0.34414697
0.8785195 -0.34881647 0.32639021
0.87333282 -0.38321874 0.30072111
0.86541449 -0.41632063 0.27880977
0.85676033 -0.44690724 0.25736289
0.84992317 -0.46532699 0.24718697
0.8395328 -0.4932334 0.22782777
0.82987205 -0.5152595 0.21405616
0.81485754 -0.54379069 0.20074577
0.80522104 -0.56123212 0.19140947
0.795013 -0.57795892 0.18416791
0.66805903 0.25149419 0.70031979
0.70803218 0.18950654 0.68027767
0.73069598 0.15350579 0.66522128
0.75851175 0.12196261 0.64014455
0.78832717 0.068926149 0.61138324
0.810229 -0.0048981277 0.58609297
0.82058746 -0.040927195 0.57005367
0.82854181 -0.056041456 0.55711563
0.83435828 -0.058017591 0.54816076
0.84003506 -0.057096403 0.53951932
0.84639553 -0.060808018 0.52907182
0.85298727 -0.071556304 0.5170033
0.86041953 -0.083650885 0.50267361
0.86923629 -0.10284302 0.48358204
0.87611784 -0.1339073 0.46312673
0.87858882 -0.16368678 0.44865167
0.87940411 -0.19821444 0.43285037
0.88098156 -0.23375126 0.41137797
0.88297168 -0.25876703 0.39166394
0.88182366 -0.28203604 0.37794536
0.8818584 -0.3072886 0.35763037
0.87625372 -0.34499011 0.33639447
0.86963569 -0.37945402 0.31582973
0.86545753 -0.40662628 0.29264027
0.85720132 -0.43662181 0.27307014
0.84550315 -0.47285995 0.24804817
0.83057492 -0.50562419 0.23342983
0.81783388 -0.53370717 0.2151846
0.80871508 -0.55160038 0.20424726
0.79880901 -0.56927226 0.19450772
0.62964493 0.3008673 0.71625843
0.68252881 0.21963384 0.69707632
0.72178969 0.16777977 0.67146824
0.74670948 0.14164601 0.64989334
0.77687173 0.095496232 0.62237511
0.80070308 0.019564305 0.59874186
0.81211945 -0.024304242 0.58298482
0.82093971 -0.03664576 0.56983776
0.82893014 -0.039540092 0.55795287
0.83481735 -0.045927644 0.54860791
0.8410191 -0.047619763 0.53890559
0.84675482 -0.055030756 0.52912936
0.85259294 -0.063823972 0.51866345
0.85780265 -0.078181947 0.50799823
0.86457557 -0.098132864 0.49282757
0.87063628 -0.12557656 0.47562905
0.874107 -0.15449551 0.4605085
0.8760822 -0.19168094 0.44242333
0.8778206 -0.22600733 0.42231704
0.87935361 -0.2523304 0.40381506
0.88034876 -0.27909729 0.38352413
0.87651489 -0.31048717 0.36785781
0.87247215 -0.34631415 0.34475914
0.86701335 -0.37676568 0.32609119
0.85877316 -0.40876424 0.30890203
0.85150636 -0.43620471 0.290968
0.83793835 -0.47857677 0.26234251
0.82476303 -0.50984483 0.24458983
0.81217347 -0.53770876 0.22637037
0.80088668 -0.5591885 0.2142166
0.59260346 0.34975128 0.72559988
0.66106044 0.25512173 0.7056288
0.70705818 0.18811937 0.68167429
0.73588072 0.15900462 0.6581771
0.7637664 0.12573734 0.63312795
0.7870939 0.066673573 0.61321923
0.8026649 0.0070266785 0.59638887
0.81591739 -0.016419473 0.57793531
0.82489662 -0.027134903 0.56463197
0.83012318 -0.029252868 0.55681215
0.83536913 -0.032527145 0.54872616
0.84181006 -0.042029508 0.53813505
0.84740334 -0.048779434 0.52870422
0.84813539 -0.059245322 0.52645641
0.85270125 -0.07328424 0.51723303
0.85936096 -0.097301979 0.50202696
0.86485742 -0.11694022 0.48820756
0.86922491 -0.14730677 0.47196268
0.87120847 -0.18708829 0.45386538
0.87522183 -0.21781853 0.43190489
0.8775701 -0.24581331 0.41163883
0.87478307 -0.27996754 0.39543996
0.87183766 -0.311564 0.37792456
0.86916042 -0.33998434 0.35912505
0.86264892 -0.37027556 0.34457633
0.85551579 -0.39896928 0.33002463
0.84471313 -0.44201606 0.30179717
0.82962479 -0.48691709 0.27319306
0.818195 -0.51311853 0.2593575
0.80397483 -0.54656097 0.23429804
0.56068078 0.39403533 0.72826727
0.62792592 0.29841772 0.7187878
0.68370706 0.22333958 0.6947403
0.72115679 0.1883652 0.66667191
0.74320337 0.15632579 0.65054669
0.76941388 0.10020025 0.63084244
0.79877674 0.032096894 0.60077076
0.80938823 0.012713873 0.58713631
0.81834067 -0.0071161268 0.5746894
0.82575651 -0.011765359 0.56390403
0.82971467 -0.021324371 0.55778028
0.83522547 -0.026398538 0.54927364
0.83962937 -0.037656632 0.54185284
0.8418812 -0.045338332 0.53775503
0.8456923 -0.055333567 0.53079443
0.84980869 -0.06928226 0.52251809
0.85522235 -0.081614724 0.51179465
0.85956689 -0.1078125 0.49952099
0.86337311 -0.14356944 0.48370931
0.86647736 -0.17192136 0.46867903
0.87255815 -0.20462348 0.44358935
0.87142195 -0.2468844 0.4238772
0.87189682 -0.27724933 0.40364432
0.86908305 -0.31059463 0.38500082
0.86456555 -0.34278754 0.3674549
0.85597555 -0.37527403 0.3556336
0.84818745 -0.40777425 0.33808018
0.83779186 -0.4438644 0.31794527
0.82614128 -0.48377904 0.28887441
0.8106524 -0.52233535 0.26459114
0.51806273 0.43974868 0.73364303
0.593666 0.35107688 0.72408957
0.66329493 0.26268089 0.70074145
0.70492677 0.20839565 0.67797456
0.72710428 0.18881582 0.66005147
0.75103444 0.15416923 0.64201177
0.78172842 0.084759465 0.61783211
0.8003461 0.044437903 0.59788911
0.81099192 0.020872877 0.5846849
0.8197876 0.0091049426 0.57259531
0.82400715 -0.0060248987 0.56654737
0.82867468 -0.010586341 0.55963042
0.82920664 -0.023146965 0.55846268
0.83679223 -0.029573599 0.54672129
0.84102854 -0.036299427 0.53977157
0.84529392 -0.044608108 0.53243619
0.84884772 -0.05563495 0.52570172
0.85182995 -0.081236521 0.51748078
0.85462168 -0.1073915 0.50802445
0.85740401 -0.13979568 0.49529339
0.86204031 -0.17517617 0.47560468
0.86419945 -0.19995503 0.46171127
0.86622016 -0.2379806 0.43934937
0.86617949 -0.27545056 0.41696531
0.86191199 -0.32214092 0.39157752
0.85668437 -0.35514529 0.37411726
0.84974299 -0.3871625 0.35782964
0.84136956 -0.41916043 0.34117708
0.83142793 -0.45594381 0.31755763
0.81512047 -0.49931221 0.29371062
0.47659533 0.48787352 0.73132504
0.5685768 0.38589747 0.7265009
0.63619146 0.30010004 0.7107745
0.67878927 0.23857285 0.69449847
0.70512755 0.21155284 0.67678691
0.73072354 0.18469099 0.6572156
0.75762374 0.13189321 0.63922645
0.78044397 0.080605765 0.620008
0.79815244 0.046280432 0.60067528
0.80924394 0.028147342 0.58679807
0.81556462 0.011288394 0.57855589
0.82161688 -0.00043381298 0.57003993
0.82530324 -0.0058714652 0.56465927
0.82744385 -0.010464528 0.56145094
0.83265418 -0.017149574 0.55352769
0.83906491 -0.026852268 0.54336823
0.84300517 -0.03862443 0.53651695
0.84583725 -0.058744443 0.5301966
0.84802594 -0.08910941 0.52240934
0.85044707 -0.11590337 0.5131337
0.8528972 -0.14546609 0.50140402
0.85600378 -0.16938733 0.48843164
0.85941415 -0.20347796 0.46904588
0.86150446 -0.23510736 0.45003844
0.86072161 -0.28150915 0.42415905
0.85587449 -0.32440805 0.40278812
0.85145348 -0.36209102 0.37936404
0.84410807 -0.39795229 0.3593265
0.83304211 -0.4366022 0.33973427
0.82101272 -0.47723598 0.31334315
0.43516913 0.51779355 0.73655799
0.52644278 0.42846502 0.73435395
0.59337722 0.35326282 0.72326265
0.64312866 0.28812653 0.70948476
0.67593625 0.24203078 0.69608282
0.70165732 0.21695348 0.67868122
0.72878281 0.17195634 0.66280211
0.75473604 0.12154675 0.64467038
0.78149904 0.079233665 0.61885481
0.79072748 0.060351992 0.60918609
0.8026947 0.030286782 0.59562062
0.81082754 0.017752189 0.58501587
0.81772574 0.013556643 0.57544838
0.82258506 0.0071336197 0.56859733
0.82889988 -0.002821919 0.55938987
0.83600516 -0.012467891 0.54857991
0.84179635 -0.025378768 0.53919832
0.84321407 -0.043568946 0.53580946
0.84513343 -0.067554075 0.53026967
0.84730069 -0.09802834 0.52198849
0.85014832 -0.11938561 0.51283029
0.85115011 -0.14742173 0.50379591
0.85319172 -0.17695337 0.49066423
0.85561985 -0.20799725 0.4739745
0.85497338 -0.23834799 0.46066339
0.85644527 -0.28552209 0.43009142
0.85102643 -0.33693774 0.4027741
0.844205 -0.37747319 0.38056788
0.84023238 -0.41009342 0.35472939
0.82899254 -0.45122612 0.33040334
0.39420472 0.56390391 0.72568244
0.48987143 0.46862553 0.73512998
0.54512783 0.40593616 0.73351993
0.59520187 0.3472779 0.72466047
0.64417158 0.28830147 0.70846683
0.67659152 0.249974 0.69263043
0.70424842 0.21123165 0.67780185
0.73109999 0.15949667 0.66336538
0.75607413 0.12151074 0.64310734
0.77775077 0.091843136 0.62182681
0.79060721 0.066958135 0.60865166
0.80250202 0.04213924 0.59515946
0.81261585 0.031910844 0.58192541
0.81991702 0.03005274 0.57169303
0.82444171 0.022987302 0.56547984
0.83315336 0.0036979437 0.55302966
0.83749845 -0.0099566324 0.54634898
0.8411621 -0.030320708 0.53993239
0.84299336 -0.052620749 0.53534405
0.84492393 -0.078995235 0.52902108
0.84858911 -0.10277423 0.51897397
0.85020333 -0.12867657 0.51048667
0.85103527 -0.15767345 0.50087728
0.85274952 -0.17905088 0.49067203
0.85332021 -0.20726895 0.47841843
0.85390342 -0.24292584 0.46025644
0.84833768 -0.30879361 0.43008102
0.84256287 -0.3526428 0.40710057
0.83843095 -0.39215981 0.37847618
0.83243765 -0.42812266 0.35179334
0.34908309 0.59756558 0.72184235
0.41770857 0.52827851 0.73921673
0.47699272 0.47451841 0.73980418
0.54087994 0.40034659 0.73971041
0.59516235 0.34261028 0.72691125
0.64527851 0.29212073 0.70589031
0.67898514 0.25283012 0.68924315
0.70623096 0.20934215 0.67632366
0.732795 0.16659331 0.65974098
0.75962565 0.1305361 0.63712573
0.77474758 0.10542614 0.62341922
0.79319788 0.074412144 0.6044005
0.80298684 0.065371921 0.59240075
0.81219716 0.053591023 0.58091632
0.81967816 0.048162517 0.57079601
0.8257364 0.032574382 0.56311483
0.83127842 0.0063736911 0.55581973
0.83427735 -0.012377767 0.55120604
0.83632517 -0.030890058 0.54736278
0.83982124 -0.05478433 0.54009163
0.84422484 -0.079734556 0.53002529
0.84820737 -0.10610445 0.51892783
0.84970394 -0.13718421 0.50910088
0.85386903 -0.15032136 0.4983083
0.85195967 -0.17559887 0.49328466
0.84927962 -0.21499299 0.48218476
0.84723259 -0.25907089 0.46376634
0.84444162 -0.31188542 0.43548346
0.84396489 -0.35116437 0.40547114
0.83644356 -0.40084131 0.37374914
0.30655262 0.6293855 0.71407239
0.35619164 0.57915149 0.73328784
0.40824429 0.52850737 0.74432289
0.47404912 0.45972752 0.75095142
0.53144722 0.40180263 0.74573353
0.58762699 0.35167388 0.72871119
0.63609922 0.30867799 0.70717443
0.67661378 0.25403525 0.69112943
0.7086437 0.21191448 0.67299061
0.72999029 0.18629255 0.65757833
0.75712288 0.15252843 0.63521652
0.77317166 0.11940164 0.62285539
0.78972833 0.092069773 0.6065083
0.80060978 0.080697532 0.59372711
0.81001473 0.065795263 0.58270672
0.81421281 0.051932863 0.57823911
0.82195537 0.020585518 0.56917977
0.82710307 0.0035691266 0.56203894
0.83212923 -0.015293168 0.55437087
0.83510054 -0.03054164 0.54924884
0.83963564 -0.051803739 0.54067399
0.84455285 -0.081296611 0.52926491
0.84827872 -0.11171548 0.51763198
0.85016806 -0.13654373 0.50849786
0.84975412 -0.15931038 0.50253172
0.84745772 -0.19490775 0.49378779
0.84368677 -0.23607131 0.48214414
0.84311452 -0.27961974 0.45931547
0.84193088 -0.32260765 0.43252365
0.83887195 -0.3578151 0.41019777
0.25137847 0.66753881 0.70085719
0.29849835 0.6199737 0.7256248
0.33961436 0.58443243 0.73695375
0.40086707 0.5361122 0.74289252
0.47192545 0.47194322 0.74468514
0.5301168 0.41076936 0.74178481
0.58012399 0.36327589 0.72903141
0.63802905 0.30092923 0.70877396
0.67311553 0.2587568 0.69279174
0.7019019 0.22699047 0.67513632
0.7285312 0.19796203 0.65578451
0.74856415 0.16876902 0.6412244
0.76285107 0.14256681 0.63066073
0.78066097 0.11575156 0.6141417
0.79197847 0.10157583 0.60204025
0.802165 0.084236474 0.59113072
0.81259107 0.047105471 0.58092755
0.8193028 0.023698622 0.57287109
0.82311322 0.0088051515 0.56780903
0.82904025 -0.015764341 0.55896668
0.83425987 -0.026491048 0.55073469
0.84085341 -0.048739166 0.53906403
0.84667571 -0.083613859 0.52549877
0.84847896 -0.1187488 0.5157346
0.84869537 -0.14747074 0.50790605
0.8488958 -0.177803 0.49775699
0.8426662 -0.21936907 0.49172237
0.83997532 -0.25260315 0.48024276
0.83749295 -0.28534843 0.46602772
0.83154996 -0.33308572 0.44449811
0.21835712 0.69715105 0.68286205
0.26090639 0.65799038 0.7063827
0.29896131 0.62475958 0.72131657
0.33722387 0.59259556 0.73151252
0.4016458 0.53821408 0.74094956
0.45557098 0.48508865 0.74642084
0.52029564 0.42456863 0.74096824
0.57129062 0.37365872 0.73075727
0.62584996 0.32382535 0.70954138
0.65838302 0.28461801 0.69679581
0.69074939 0.24671092 0.67970509
0.71083646 0.21741918 0.66890988
0.73050431 0.18321727 0.65787148
0.74682175 0.16572482 0.64404392
0.76299931 0.14819569 0.62918208
0.78155528 0.11678233 0.61280767
0.79096181 0.088137251 0.6054843
0.8027761 0.055609759 0.59368181
0.81190537 0.031482079 0.58293957
0.8188947 0.020135515 0.57359048
0.82822897 0.000508735 0.5603896
0.83626362 -0.019834698 0.54796875
0.84181599 -0.050076977 0.53743664
0.84443122 -0.084847609 0.5289015
0.84589548 -0.12805084 0.51774881
0.84197816 -0.1737113 0.51078093
0.83717012 -0.20939575 0.50527181
0.83130797 -0.24459925 0.49909745
0.82683294 -0.272034 0.49228528
0.82635224 -0.30099387 0.47596709
0.18331303 0.72534792 0.66352598
0.21796708 0.69283499 0.68736456
0.2601403 0.66467672 0.70037981
0.29426762 0.63291125 0.71612144
0.33545759 0.59651081 0.72913857
0.38674988 0.54718155 0.74230511
0.44912873 0.50078813 0.7399288
0.51954042 0.43946407 0.7327681
0.56156785 0.39808826 0.72537389
0.60113038 0.35264678 0.71713494
0.63255586 0.30746833 0.7108701
0.66307185 0.27417168 0.69653831
0.68733321 0.23817724 0.68618122
0.70961846 0.20952496 0.67271163
0.72994712 0.1860869 0.65768448
0.74486615 0.15795557 0.64824722
0.7629753 0.12588582 0.63405162
0.77359083 0.10268627 0.62531013
0.78741505 0.081090072 0.61106623
0.79977635 0.060527633 0.59723882
0.80912865 0.037504009 0.58643352
0.81832748 0.011111102 0.57464483
0.82494764 -0.018951849 0.56489134
0.8282643 -0.065629603 0.55648091
0.82904363 -0.11434744 0.54736762
0.82715533 -0.16441912 0.53738293
0.82357217 -0.20169577 0.53013931
0.81791117 -0.23835316 0.52364977
0.81653087 -0.25874692 0.51606915
0.81105478 -0.29330179 0.50612667
0.16511974 0.74367783 0.64782618
0.19266932 0.71903215 0.66773595
0.2173292 0.69688506 0.68346121
0.25988632 0.66702078 0.69824235
0.29563364 0.63787298 0.71113909
0.32904674 0.60370227 0.72613484
0.38723442 0.56768335 0.72648821
0.45117791 0.51669362 0.72764428
0.50891764 0.45550455 0.73042347
0.55330002 0.40528634 0.72773764
0.58392499 0.35952198 0.72785682
0.60436726 0.32959667 0.72533182
0.63844916 0.29854997 0.70940157
0.65901635 0.2727059 0.7009486
0.68711619 0.24200786 0.68505732
0.70717662 0.21294338 0.67420794
0.72522729 0.18154638 0.66414328
0.74422542 0.1517981 0.6504505
0.75964573 0.13043384 0.63712274
0.77121086 0.10759632 0.62742078
0.78187898 0.074900637 0.6189145
0.78763315 0.052282234 0.6139223
0.79158366 0.014768873 0.6108823
0.79698936 -0.040353234 0.60264382
0.80198783 -0.097075694 0.58939955
0.8044481 -0.15442495 0.57359932
0.80509374 -0.19608901 0.55979744
0.79783747 -0.23210453 0.55640171
0.79254285 -0.26375948 0.5498243
0.78757869 -0.29681828 0.54001733
0.14558926 0.75881047 0.63483103
0.16183294 0.74140557 0.65125102
0.1859987 0.723764 0.66450745
0.21469334 0.7007802 0.68030425
0.25405102 0.67617451 0.69155341
0.28989133 0.65057583 0.70193597
0.34400497 0.61431328 0.71012659
0.39442031 0.57719745 0.71503547
0.45124442 0.52586372 0.72100334
0.50291991 0.46638724 0.72770496
0.54177422 0.41678655 0.72991073
0.57226166 0.37936116 0.72705
0.5957255 0.35185857 0.7220157
0.62552442 0.32087595 0.71116652
0.66380177 0.28803454 0.69021976
0.68786746 0.25857383 0.67821673
0.70811226 0.22850105 0.66810501
0.72518772 0.20845937 0.65623736
0.7397121 0.17252933 0.65043035
0.75024248 0.14063758 0.64603196
0.75845158 0.10646293 0.64297499
0.76247777 0.075492722 0.64259513
0.76970236 0.030676753 0.63766544
0.77296832 -0.018095533 0.63418651
0.77720173 -0.074799633 0.62478995
0.78159484 -0.13266533 0.60951572
0.77911267 -0.18836645 0.59791432
0.77329009 -0.23345876 0.58950779
0.76874336 -0.26653991 0.58136918
0.76131582 -0.29724068 0.5762345
0.12266496 0.77334261 0.62200845
0.14141164 0.75746722 0.63737443
0.16245896 0.7431724 0.64907771
0.18120137 0.72924551 0.6598235
0.21291426 0.71456077 0.6663861
0.25698052 0.68474353 0.68197311
0.30260385 0.66036719 0.68727439
0.35313996 0.63004173 0.69162098
0.40701333 0.5785465 0.70684093
0.45079091 0.53477589 0.71470435
0.50519908 0.47502981 0.72050022
0.53546571 0.43870861 0.72167252
0.56207363 0.4097649 0.71844691
0.58972335 0.38912124 0.70768004
0.61633656 0.366254 0.69712786
0.65777697 0.32313435 0.68037758
0.68403057 0.28442926 0.67171584
0.70092776 0.2485843 0.66851037
0.71737737 0.20979135 0.66434728
0.7294475 0.16998626 0.66257906
0.7382031 0.13280252 0.6613771
0.7461532 0.088097034 0.65991993
0.75061047 0.043918339 0.65928378
0.75414995 -0.0039174581 0.65669057
0.75823657 -0.062257119 0.64900027
0.76015767 -0.11777574 0.63897511
0.75747584 -0.17362589 0.62935237
0.75288544 -0.22811946 0.61735324
0.74581151 -0.26332876 0.61190126
0.740325 -0.29191935 0.60555923
0.10149971 0.78861155 0.60645662
0.11927282 0.77372556 0.62219189
0.13964934 0.76055547 0.63407684
0.16008602 0.74826237 0.64379803
0.18601542 0.73898313 0.64753548
0.22392514 0.71876463 0.65820584
0.26152872 0.69895154 0.66563464
0.29795715 0.67692895 0.67304438
0.34228744 0.64278346 0.68532381
0.40005725 0.59108759 0.70040678
0.45115868 0.54365187 0.70774183
0.4896095 0.50306469 0.71218569
0.53512375 0.45511718 0.71169581
0.56012027 0.43906973 0.70248349
0.57715353 0.42167165 0.69934742
0.61082138 0.38777091 0.69031223
0.6387962 0.34599736 0.68718647
0.66740346 0.30032047 0.6814545
0.68762974 0.25433688 0.68005742
0.70623555 0.19361446 0.68098809
0.71719082 0.15423913 0.67959371
0.72550547 0.11196618 0.67904741
0.73382552 0.059891127 0.67669281
0.73846598 0.0078108454 0.6742455
0.74056708 -0.052081384 0.66996114
0.73960054 -0.10519738 0.66477406
0.73799113 -0.16040681 0.65546834
0.7347556 -0.21233309 0.64424287
0.72596043 -0.26411637 0.63499921
0.72174782 -0.2941914 0.62652335
0.073986154 0.80501324 0.58862529
0.087487905 0.78967091 0.60726084
0.11107407 0.77684657 0.61981607
0.13363559 0.76387109 0.63138141
0.15930217 0.75858856 0.63179603
0.19551168 0.74574389 0.63689971
0.22710715 0.72869342 0.64608686
0.25741279 0.70972002 0.65577141
0.29424884 0.68724748 0.66416001
0.34428489 0.65053419 0.67695878
0.40067456 0.60151673 0.69111325
0.45033522 0.55834109 0.69674487
0.49491943 0.51480512 0.70002175
0.52820505 0.48641956 0.69598523
0.55420366 0.45734276 0.6954825
0.57462952 0.43395425 0.69389093
0.59974348 0.39830916 0.69401555
0.63045348 0.35482524 0.69038211
0.65358006 0.29582949 0.6966477
0.67676702 0.23825767 0.69657712
0.69172896 0.18999386 0.69671614
0.70911724 0.12835338 0.69330956
0.71768146 0.076314538 0.6921773
0.72312577 0.019225803 0.69044876
0.72664966 -0.041721498 0.68574018
0.72867303 -0.088809178 0.67907919
0.72360464 -0.15746079 0.67201371
0.71725771 -0.21219564 0.66371258
0.71168971 -0.26508474 0.65055963
0.70427452 -0.29712353 0.64475965
0.043428423 0.81529004 0.57742196
0.055746139 0.80490033 0.59078577
0.070380495 0.79360976 0.60434273
0.09839913 0.78292731 0.61428205
0.12680124 0.77486259 0.61928137
0.15502298 0.76567907 0.62426232
0.18470246 0.75168395 0.63313209
0.2112921 0.73499485 0.64431221
0.24019529 0.71731649 0.65403614
0.27837558 0.69581836 0.66207541
0.33752212 0.65878633 0.67236849
0.3849675 0.61753543 0.68589359
0.43372203 0.57837971 0.69091397
0.47622756 0.53403197 0.69858226
0.50624823 0.49932373 0.70312768
0.52821179 0.46776635 0.7086515
0.55390593 0.43656532 0.70894213
0.58346208 0.39805743 0.70789991
0.6081163 0.35000469 0.71252458
0.63985061 0.28999511 0.71168394
0.66347521 0.22691015 0.71296033
0.68814148 0.1538692 0.70907375
0.69745633 0.10032693 0.70956971
0.70525122 0.034581597 0.70811357
0.70950077 -0.02471174 0.70427124
0.70998665 -0.091792456 0.69820706