# vtk DataFile Version 2.0
Grain example
ASCII
DATASET UNSTRUCTURED_GRID
POINTS 900 float
-13.818189 1.1058528 8.3234546
-14.025274 1.116314 7.6659456
-14.232404 1.1341381 6.987245
-14.443554 1.1467679 6.3049633
-14.643036 1.1650947 5.6094424
-14.820652 1.1820743 4.9379836
-14.985056 1.2043876 4.2697608
-15.140631 1.2360965 3.604624
-15.270839 1.2590905 3.0341228
-15.383824 1.2859718 2.5018921
-15.48934 1.3155186 1.9836256
-15.569799 1.3543384 1.4307306
-15.641654 1.390708 0.82923038
-15.68214 1.43939 0.19624944
-15.707947 1.4818758 -0.45613316
-15.724373 1.5134067 -1.14309
-15.705465 1.553291 -1.8657538
-15.65417 1.5739491 -2.6892119
-15.578393 1.586835 -3.5501014
-15.464636 1.6122615 -4.4783153
-15.312669 1.6302529 -5.3764106
-15.142422 1.6439621 -6.2129579
-14.948387 1.661329 -7.0547767
-14.747496 1.6839298 -7.8518625
-14.509112 1.7064152 -8.650306
-14.272149 1.7307494 -9.4405868
-14.049934 1.7451836 -10.19244
-13.826413 1.7513524 -10.918955
-13.607722 1.754941 -11.620342
-13.384331 1.7633625 -12.314019
-13.475085 1.6852639 8.357443
-13.677513 1.7079203 7.6864533
-13.882398 1.7233983 7.0037245
-14.075282 1.7526553 6.3030029
-14.258832 1.7897754 5.588963
-14.420967 1.818907 4.9242618
-14.580563 1.8454222 4.2555431
-14.737051 1.8695896 3.5951417
-14.85803 1.8857672 3.0516429
-14.970724 1.9123777 2.519422
-15.062195 1.9523436 1.9606521
-15.128692 2.0041914 1.4062526
-15.164214 2.0593609 0.81024303
-15.203847 2.1075513 0.18191027
-15.225224 2.1547891 -0.46790253
-15.22517 2.1874945 -1.168959
-15.199518 2.2388058 -1.8870687
-15.159182 2.2619619 -2.6948466
-15.095799 2.2785421 -3.5421576
-14.987079 2.2995816 -4.4760413
-14.84928 2.3197778 -5.4088582
-14.681614 2.3256233 -6.2694652
-14.497213 2.3330074 -7.1349252
-14.304506 2.3524039 -7.9644736
-14.105741 2.3759096 -8.7780548
-13.870089 2.3936047 -9.555403
-13.64272 2.4037957 -10.298868
-13.422941 2.4053102 -11.016639
-13.204145 2.4082684 -11.726234
-12.980729 2.4150677 -12.444543
-13.142141 2.2129723 8.3874985
-13.346323 2.2372532 7.7164495
-13.548421 2.2572053 7.0085225
-13.73819 2.2990205 6.2778471
-13.913111 2.3459867 5.5709917
-14.067385 2.385146 4.9052383
-14.216306 2.4196119 4.243774
-14.343026 2.4450975 3.6275708
-14.448317 2.4725715 3.0805737
-14.539814 2.5033731 2.5142537
-14.606901 2.5549683 1.9475174
-14.673852 2.6063038 1.3787332
-14.717953 2.6613656 0.7923279
-14.755832 2.7091322 0.18252976
-14.757645 2.7637741 -0.47526655
-14.750218 2.8161453 -1.1698428
-14.727016 2.8691945 -1.8962476
-14.692351 2.8981038 -2.6965224
-14.639878 2.9170698 -3.5291776
-14.545992 2.935076 -4.4540373
-14.416785 2.9537789 -5.3988042
-14.249932 2.9579785 -6.296388
-14.064914 2.9642573 -7.1700381
-13.881238 2.9731129 -8.023207
-13.691604 2.9864353 -8.8563056
-13.497707 2.9990083 -9.6399921
-13.273869 3.0032834 -10.391129
-13.052232 3.0079367 -11.100956
-12.837446 3.0102826 -11.810358
-12.619739 3.009922 -12.519659
-12.821756 2.7258208 8.4108973
-13.015878 2.7651455 7.7135773
-13.206536 2.8085835 6.9951872
-13.39965 2.8448426 6.2650576
-13.57138 2.8796658 5.5507623
-13.711553 2.922536 4.8759593
-13.834493 2.9610295 4.2462469
-13.941799 2.9958237 3.649254
-14.020394 3.0413045 3.0916562
-14.087714 3.0924489 2.5146484
-14.158891 3.1385114 1.9381694
-14.231395 3.1856694 1.3595922
-14.278901 3.2351658 0.77270465
-14.296297 3.2899178 0.16162595
-14.301411 3.3482027 -0.48730291
-14.292083 3.408767 -1.162461
-14.27397 3.4574914 -1.894281
-14.237929 3.4944145 -2.6854194
-14.192034 3.5103533 -3.5248232
-14.109933 3.531557 -4.4350571
-13.995131 3.555084 -5.3776047
-13.82907 3.5592169 -6.2875325
-13.65571 3.5663085 -7.1814492
-13.468961 3.5685239 -8.0259708
-13.276834 3.5698173 -8.8747439
-13.090522 3.5753677 -9.674121
-12.899167 3.5870337 -10.441142
-12.683983 3.5884786 -11.15874
-12.468426 3.5906439 -11.859904
-12.262801 3.5755119 -12.567636
-12.473442 3.2712421 8.3977805
-12.657553 3.3180682 7.6912717
-12.835345 3.3752845 6.9672341
-13.016018 3.417059 6.232104
-13.181001 3.4548196 5.5255892
-13.308229 3.4789092 4.8806304
-13.43337 3.501599 4.2439543
-13.518664 3.5516857 3.661494
-13.58677 3.6036901 3.0865118
-13.654574 3.6552826 2.5094876
-13.718101 3.7117004 1.9340015
-13.780207 3.7662685 1.3503532
-13.803858 3.8264817 0.73392752
-13.817177 3.8861118 0.12232773
-13.823339 3.9469667 -0.50200443
-13.82675 4.0031149 -1.1594706
-13.811432 4.0543719 -1.8922845
-13.784852 4.092304 -2.6692301
-13.734442 4.1127152 -3.5091408
-13.651405 4.1323856 -4.4296061
-13.552889 4.1459689 -5.3563599
-13.406617 4.1508605 -6.26975
-13.221655 4.1558584 -7.1639296
-13.040952 4.1585466 -8.020644
-12.855154 4.161377 -8.8693052
-12.671275 4.1632556 -9.693067
-12.481344 4.1708481 -10.476227
-12.296673 4.1610813 -11.20011
-12.098467 4.1409093 -11.890681
-11.900482 4.1041653 -12.571729
-12.097003 3.8284866 8.3662332
-12.27344 3.8849801 7.6504531
-12.450848 3.9421061 6.9305356
-12.615453 3.9954913 6.2021835
-12.759048 4.0239572 5.524481
-12.881786 4.0487477 4.8875562
-13.005495 4.0741706 4.2464933
-13.086934 4.1112317 3.6525096
-13.156748 4.1604923 3.0778
-13.222485 4.214764 2.5046215
-13.282036 4.2669627 1.9210608
-13.315611 4.3335115 1.3272055
-13.340335 4.3987138 0.70528082
-13.351203 4.4642615 0.08591881
-13.354231 4.5311001 -0.53537457
-13.353257 4.5976996 -1.1700758
-13.338207 4.6600594 -1.8696901
-13.326383 4.6938539 -2.6535176
-13.280978 4.7105143 -3.4888333
-13.197967 4.7264134 -4.4007581
-13.088892 4.738603 -5.3319158
-12.955371 4.7415256 -6.2570682
-12.781896 4.7490449 -7.1427697
-12.609823 4.7418873 -8.0066698
-12.428406 4.7357923 -8.8544875
-12.246154 4.7180756 -9.6684421
-12.067838 4.6915567 -10.473328
-11.893762 4.6694369 -11.204131
-11.733284 4.6414785 -11.884482
-11.567953 4.5971077 -12.547253
-11.712624 4.3913567 8.3339677
-11.87573 4.4571356 7.6169914
-12.039328 4.5182426 6.8880132
-12.193235 4.5684453 6.1966484
-12.332459 4.5936608 5.531411
-12.455803 4.6187451 4.8903608
-12.5602 4.6557692 4.23533
-12.640427 4.6925075 3.6537048
-12.716607 4.7299556 3.0739404
-12.781001 4.7735287 2.4891529
-12.813509 4.8392197 1.8973868
-12.84895 4.9030361 1.3017451
-12.873995 4.9688698 0.68494104
-12.8904 5.0346187 0.056482672
-12.898631 5.0973244 -0.56894681
-12.897042 5.1626075 -1.2151094
-12.873181 5.245113 -1.8802897
-12.84937 5.3013921 -2.6152153
-12.819074 5.3103463 -3.4504228
-12.739395 5.3198797 -4.3741168
-12.611039 5.335308 -5.3144769
-12.477247 5.3416412 -6.2502143
-12.33914 5.3148233 -7.0989961
-12.186992 5.2795913 -7.9435207
-12.014712 5.2508726 -8.8016551
-11.842361 5.2244857 -9.6228378
-11.665932 5.1948551 -10.435669
-11.505741 5.1547751 -11.172844
-11.356299 5.1148699 -11.860132
-11.207766 5.0703519 -12.497524
-11.330179 4.9182012 8.2550141
-11.483566 4.9971454 7.5449302
-11.632315 5.0687978 6.8558632
-11.773736 5.1225463 6.1967778
-11.907491 5.1602714 5.5345114
-12.014548 5.1994928 4.8752837
-12.108357 5.2410206 4.2401516
-12.188942 5.2778238 3.6544089
-12.250362 5.3183733 3.0656174
-12.295985 5.3656597 2.4716105
-12.342386 5.4135318 1.8755238
-12.376605 5.4759496 1.2758186
-12.405814 5.5417122 0.66536056
-12.428146 5.6081597 0.029844671
-12.436366 5.6708872 -0.59507125
-12.437076 5.7338533 -1.2428422
-12.424249 5.8002716 -1.911742
-12.397515 5.8691894 -2.6111229
-12.348356 5.9021466 -3.4096567
-12.261768 5.9058122 -4.3249031
-12.146782 5.8853622 -5.2723486
-12.016972 5.8662928 -6.1874334
-11.891985 5.8289278 -7.0514341
-11.757155 5.7983566 -7.8709295
-11.604064 5.7611857 -8.7318431
-11.444173 5.724172 -9.5600108
-11.28137 5.6903903 -10.363777
-11.131227 5.6374498 -11.107855
-10.982787 5.5849586 -11.802397
-10.834043 5.5391788 -12.456203
-10.949089 5.4457689 8.1678025
-11.098304 5.5219135 7.4742826
-11.242027 5.5861821 6.8103528
-11.375082 5.645961 6.1628792
-11.49304 5.704203 5.5067213
-11.590163 5.7561222 4.8502875
-11.674758 5.8036958 4.2391126
-11.726347 5.856375 3.6428479
-11.770491 5.9064833 3.0465074
-11.812769 5.959324 2.451954
-11.856329 6.0088912 1.8556339
-11.902577 6.0562236 1.2533943
-11.9385 6.1108308 0.64300185
-11.961053 6.1776839 0.010557524
-11.978253 6.239843 -0.61759774
-11.983574 6.2944242 -1.2595317
-11.975469 6.3522443 -1.9274732
-11.946997 6.4029431 -2.6146952
-11.901727 6.4160714 -3.3723767
-11.804152 6.4108896 -4.2667182
-11.687459 6.3941188 -5.2000666
-11.574207 6.3641598 -6.1178412
-11.456328 6.3277198 -7.0022828
-11.329425 6.2961062 -7.8172839
-11.204447 6.257087 -8.639899
-11.059679 6.2119169 -9.4751437
-10.915591 6.1584233 -10.280848
-10.772908 6.0988792 -11.032402
-10.63387 6.032365 -11.709025
-10.488942 5.9712123 -12.386272
-10.566937 5.9728836 8.0888394
-10.707473 6.0382611 7.4205815
-10.848086 6.1001827 6.7649686
-10.977289 6.1645134 6.1087549
-11.083144 6.2326447 5.4431485
-11.179067 6.2880466 4.7905301
-11.231016 6.3445876 4.1816056
-11.270633 6.4037509 3.5885349
-11.310741 6.4636356 2.9995526
-11.35233 6.5206982 2.4129028
-11.391854 6.5800412 1.8239407
-11.43285 6.6361563 1.2311529
-11.473007 6.686832 0.6335928
-11.511737 6.7298588 0.0056215491
-11.538766 6.7854785 -0.62941163
-11.543364 6.8246655 -1.2636845
-11.520755 6.8635694 -1.9150442
-11.491987 6.9034424 -2.5973238
-11.450926 6.921803 -3.3346224
-11.357475 6.9015039 -4.219407
-11.25818 6.8703953 -5.1200821
-11.156425 6.8305181 -6.0201765
-11.052052 6.7836209 -6.9239555
-10.946941 6.7338147 -7.7615273
-10.8177 6.7000348 -8.576447
-10.695097 6.6602221 -9.378286
-10.560998 6.5994746 -10.170694
-10.42674 6.5347545 -10.921545
-10.294618 6.463296 -11.60579
-10.150052 6.3949213 -12.298976
-10.173515 6.4916925 8.0431054
-10.314384 6.5595416 7.3746711
-10.447123 6.6228216 6.7186678
-10.563262 6.695354 6.0407219
-10.66818 6.7628843 5.3792537
-10.731066 6.8366413 4.7116503
-10.770987 6.8941902 4.1228399
-10.814323 6.9524709 3.5299716
-10.858865 7.0034817 2.9418291
-10.905025 7.0540959 2.3579019
-10.949812 7.1054667 1.7718039
-10.995238 7.1549986 1.1817434
-11.044504 7.1974051 0.59443029
-11.084064 7.2233273 -0.0074486721
-11.116185 7.2501801 -0.62256331
-11.115434 7.2846627 -1.2528037
[...]
POINT_DATA 900
VECTORS normals float
-0.8435587 0.42591339 0.3271185
-0.84311784 0.44655242 0.29957178
-0.83637437 0.4693512 0.28317372
-0.83406986 0.48103575 0.27005939
-0.83453654 0.48893588 0.25394974
-0.83283847 0.49898604 0.23956837
-0.8334842 0.50497528 0.22428564
-0.83368293 0.51056074 0.21047684
-0.83329823 0.51609288 0.19814692
-0.83171318 0.52460786 0.18176846
-0.8314153 0.53014724 0.16641064
-0.82942469 0.53933138 0.14552096
-0.82971353 0.54482608 0.12140836
-0.82743998 0.55398502 0.09188944
-0.82723466 0.55877042 0.058808413
-0.82400057 0.56598014 0.026259133
-0.83075198 0.55652526 -0.011436159
-0.83419144 0.5491474 -0.050613947
-0.84053351 0.53411394 -0.090695739
-0.84646876 0.51825282 -0.12208459
-0.84922124 0.50858046 -0.14201832
-0.85161945 0.4976248 -0.16466291
-0.85537841 0.48594435 -0.1794042
-0.8536475 0.48156673 -0.19844252
-0.85585862 0.46834752 -0.2194462
-0.85714653 0.45527818 -0.24087675
-0.85568088 0.44253566 -0.26827675
-0.85676233 0.41987322 -0.29944079
-0.85174388 0.38646979 -0.35379863
-0.84441748 0.34845904 -0.40686043
-0.83346894 0.45481076 0.31380997
-0.83136794 0.47628139 0.28632741
-0.82523939 0.49659905 0.26901549
-0.82284127 0.50648875 0.25768467
-0.81968697 0.51808085 0.24434709
-0.81678183 0.52867245 0.23102572
-0.81546567 0.53785833 0.21383207
-0.81279731 0.54915572 0.19439273
-0.80991549 0.5569201 0.18405677
-0.80503235 0.56812451 0.17075555
-0.79992493 0.58047609 0.15220911
-0.79659575 0.5897448 0.13280167
-0.79537028 0.59611366 0.10970245
-0.79458671 0.60111492 0.085397974
-0.79547625 0.60312112 0.058842632
-0.80008825 0.59909288 0.030765458
-0.80437532 0.59411942 -0.0015648974
-0.81038223 0.58473065 -0.037023071
-0.81765886 0.570702 -0.075718033
-0.82266736 0.55791098 -0.10933319
-0.82620947 0.5483294 -0.12927789
-0.82954701 0.53872497 -0.14706178
-0.8285062 0.53586783 -0.162552
-0.83275013 0.521721 -0.18529548
-0.83360922 0.51372577 -0.20293226
-0.83500679 0.50226854 -0.22469972
-0.83748658 0.48587917 -0.2500753
-0.83818461 0.46583403 -0.28362864
-0.83688993 0.43894221 -0.32702443
-0.83355383 0.40084877 -0.38014244
-0.82473784 0.48554968 0.28991205
-0.82261352 0.50167607 0.26763431
-0.818808 0.51450474 0.2546337
-0.8134583 0.52789813 0.24414988
-0.8086705 0.54125752 0.23041772
-0.80379162 0.55459473 0.21527592
-0.80018495 0.56723562 0.19480193
-0.79682572 0.57745626 0.17780056
-0.79012257 0.59036912 0.16483517
-0.78537107 0.59979728 0.15308659
-0.78345185 0.60520113 0.14119062
-0.7808387 0.61249081 0.12306878
-0.77752083 0.62030265 0.10337301
-0.77697303 0.62397824 0.083450979
-0.78055914 0.62168962 0.065034174
-0.78512777 0.61804671 0.039908013
-0.79019073 0.61277635 0.010185966
-0.79421897 0.60707637 -0.025971456
-0.8021981 0.593539 -0.064727682
-0.80551731 0.58486893 -0.095237619
-0.80948789 0.57494541 -0.11902573
-0.81145676 0.56705663 -0.14136726
-0.81275578 0.56105863 -0.15697537
-0.81532908 0.55285691 -0.17201084
-0.81540632 0.54595953 -0.19245967
-0.81885371 0.53394027 -0.21068077
-0.82030575 0.52187854 -0.23396853
-0.8230106 0.50232925 -0.26517708
-0.82061008 0.48330785 -0.30497969
-0.81501746 0.45681891 -0.356459
-0.81576052 0.50938274 0.2739781
-0.81336614 0.52454428 0.25157268
-0.81046999 0.53450018 0.23968305
-0.80736735 0.54367443 0.22929475
-0.80087401 0.558488 0.21608325
-0.79694287 0.56977453 0.20059675
-0.7932082 0.58097028 0.18246723
-0.79054556 0.58914422 0.16717297
-0.78745604 0.59661053 0.15481877
-0.7846265 0.60282477 0.14478799
-0.78230271 0.60943473 0.1288091
-0.77964138 0.61588058 0.11335975
-0.77925848 0.61891236 0.098507386
-0.77843982 0.62222691 0.082856012
-0.77832508 0.62412822 0.06836691
-0.78021321 0.62367584 0.04791446
-0.78358669 0.62103989 0.017359588
-0.7871152 0.61644447 -0.021116084
-0.79104601 0.60942566 -0.053353351
-0.79268248 0.60372872 -0.084652912
-0.79508406 0.5963892 -0.11027807
-0.79663919 0.59011791 -0.1308696
-0.79801879 0.58352949 -0.15053019
-0.7978758 0.58032547 -0.16314581
-0.79934629 0.57290715 -0.18117095
-0.80418651 0.56144932 -0.19508645
-0.80680537 0.54909903 -0.2180719
-0.80674416 0.53641372 -0.24783903
-0.80645357 0.51504208 -0.29045534
-0.80249394 0.49640964 -0.33103012
-0.80593728 0.53273103 0.25819129
-0.80342706 0.54451867 0.24084099
-0.8007095 0.5537318 0.22857251
-0.79629813 0.56524124 0.21543358
-0.79112942 0.57695732 0.20306276
-0.78711661 0.58727546 0.18856027
-0.7863269 0.59305906 0.17312123
-0.78725994 0.59554599 0.15983355
-0.78457164 0.60239166 0.14687288
-0.78157548 0.60817074 0.13880966
-0.77883823 0.61492648 0.12359791
-0.77905836 0.61755777 0.1081225
-0.7773024 0.62208968 0.093837172
-0.77468212 0.62753175 0.077919921
-0.77509014 0.62819218 0.06789599
-0.77605477 0.62824027 0.055255323
-0.77675573 0.62939954 0.022511316
-0.78172402 0.62336017 -0.01815635
-0.78514589 0.61735183 -0.049220377
-0.78467262 0.61502306 -0.077688607
-0.78526912 0.61016246 -0.1051389
-0.78562022 0.60572515 -0.12608695
-0.78565488 0.60159953 -0.14430665
-0.78416359 0.59973263 -0.15939961
-0.78683626 0.59354709 -0.16908745
-0.78865102 0.5862569 -0.18529006
-0.78746248 0.58143402 -0.20454175
-0.78921519 0.56812564 -0.23317942
-0.79431189 0.54082657 -0.27672232
-0.79012353 0.52441431 -0.31732388
-0.79783297 0.55122879 0.24415031
-0.79594276 0.56093782 0.22764862
-0.79338845 0.56921245 0.21571267
-0.78873661 0.57997926 0.20376116
-0.78638252 0.58639318 0.19428219
-0.78422467 0.59294551 0.18277662
-0.7836814 0.59798602 0.16809577
-0.78262246 0.60381468 0.15136021
-0.78033257 0.60918442 0.14133441
-0.77599076 0.61704874 0.1307256
-0.77494136 0.62083898 0.11842659
-0.77392479 0.62483239 0.10307718
-0.77395218 0.62699948 0.088711196
-0.77389044 0.62873973 0.07602587
-0.7730133 0.6306193 0.069063227
-0.77138811 0.63392826 0.055635862
-0.77395103 0.63282272 0.023134594
-0.77904758 0.62684834 -0.012084253
-0.77981918 0.62473963 -0.039779962
-0.77933209 0.62244979 -0.072095404
-0.77546166 0.62312701 -0.10184275
-0.77378981 0.62144719 -0.12268952
-0.77303482 0.6189075 -0.13917858
-0.77390921 0.61440846 -0.15351473
-0.77456546 0.61148341 -0.16166751
-0.77585088 0.60505216 -0.178794
-0.77458923 0.60222678 -0.19322122
-0.7752627 0.59342728 -0.21636039
-0.77846568 0.57507733 -0.25154968
-0.77852876 0.55504898 -0.29293957
-0.79107724 0.56462857 0.23535373
-0.78787596 0.57562103 0.21888788
-0.78587647 0.58260294 0.20729687
-0.78486411 0.58736241 0.1974683
-0.78235978 0.59379647 0.18793331
-0.78115177 0.59909519 0.1757466
-0.77944206 0.60548762 0.16079435
-0.77745243 0.61237296 0.14341229
-0.77483201 0.61872744 0.12965998
-0.77252124 0.62295994 0.12301159
-0.77133254 0.62629261 0.11315334
-0.77263774 0.62662825 0.10182322
-0.77167385 0.63015957 0.086129972
-0.76965181 0.63381276 0.076925143
-0.76971256 0.63459839 0.069479929
-0.76935632 0.63646688 0.054779236
-0.77317705 0.63383268 0.021292909
-0.77387673 0.63333157 0.0024364143
-0.77367956 0.63240197 -0.03857067
-0.77098723 0.63281891 -0.07154667
-0.76476874 0.6361814 -0.10199015
-0.76140357 0.63691329 -0.12085555
-0.76097341 0.63480181 -0.13396317
-0.76210179 0.63103694 -0.14489047
-0.76541094 0.62332118 -0.16005247
-0.76418087 0.62057294 -0.17583182
-0.76447434 0.61642325 -0.1886832
-0.76634965 0.60843199 -0.20620069
-0.76600204 0.59897909 -0.2333772
-0.76298883 0.5829786 -0.27925615
-0.78303013 0.58026744 0.22394979
-0.78166635 0.58662965 0.21180975
-0.78014697 0.59185032 0.20269166
-0.7800374 0.59501825 0.19363611
-0.77879544 0.59951691 0.18454577
-0.77666807 0.60716955 0.1677255
-0.77402998 0.61501516 0.15044582
-0.77413967 0.61819211 0.13618476
-0.77259891 0.62285804 0.12303975
-0.77030862 0.62645901 0.11905353
-0.77044931 0.62795317 0.10992122
-0.77188805 0.62840219 0.096434047
-0.77156985 0.63078376 0.082412519
-0.77227237 0.63050665 0.077825122
-0.77353107 0.63017655 0.067284468
-0.7707698 0.6351207 0.050354906
-0.769841 0.63773508 0.025274534
-0.76746478 0.64109088 0.00054930684
-0.76418184 0.64371387 -0.04072546
-0.76016144 0.64513474 -0.077173577
-0.7559127 0.6468399 -0.10096603
-0.75351196 0.64626637 -0.12066277
-0.75321923 0.64520077 -0.12797171
-0.75390588 0.64180056 -0.14042066
-0.75412008 0.63784697 -0.15637824
-0.75372228 0.63485974 -0.16987006
-0.75316853 0.63171104 -0.18351654
-0.75142721 0.62862644 -0.20046435
-0.75044133 0.62155973 -0.22472496
-0.74496939 0.61009237 -0.26982939
-0.7767697 0.59153427 0.21613894
-0.77500283 0.59750575 0.20580934
-0.77474945 0.60021945 0.19874585
-0.77476293 0.6031182 0.18971251
-0.77333686 0.60795967 0.17981976
-0.77178056 0.61548197 0.1598021
-0.76966685 0.62177776 0.14493223
-0.7699345 0.62469543 0.1302171
-0.77176309 0.62421702 0.12138717
-0.77093947 0.62598082 0.11747491
-0.77241626 0.62571545 0.1088728
-0.77389527 0.6256865 0.097992478
-0.77247371 0.62896834 0.087653844
-0.77287807 0.63051127 0.071519437
-0.77206366 0.63261144 0.060995669
-0.76589608 0.64143647 0.044299587
-0.7632935 0.64560243 0.024094351
-0.75996161 0.64996714 -0.0010332634
-0.75214297 0.65731865 -0.047044143
-0.75127153 0.65529247 -0.07863123
-0.74849684 0.65520168 -0.10228999
-0.74591633 0.65543187 -0.11839716
-0.74555043 0.65443334 -0.12598239
-0.74597669 0.65167841 -0.13723711
-0.74680016 0.6477942 -0.15050645
-0.74690874 0.64446482 -0.16368393
-0.74714962 0.64007997 -0.17906726
-0.74291064 0.64000383 -0.19616036
-0.73804721 0.63938072 -0.21558897
-0.73294752 0.6325208 -0.25041039
-0.7713861 0.6008775 0.20954644
-0.77046653 0.6052127 0.20024713
-0.76901815 0.60901281 0.19420217
-0.76909712 0.61227608 0.1833238
-0.76525593 0.62050766 0.17132892
-0.76396247 0.62671349 0.15359539
-0.76444288 0.62948658 0.13918955
-0.76220977 0.63403038 0.13054408
-0.76310764 0.63466367 0.12193752
-0.762251 0.63692643 0.11531756
-0.76258301 0.63772468 0.1085098
-0.76132235 0.64081104 0.098739549
-0.76088207 0.6433937 0.084279398
-0.76060767 0.64572899 0.067156809
-0.75834683 0.64971247 0.052761618
-0.75473102 0.65492466 0.038141417
-0.75204056 0.65883487 0.019277001
-0.74702221 0.66475726 -0.0074568171
-0.74047662 0.67078628 -0.041715077
-0.73773943 0.67051827 -0.078395109
-0.73890274 0.66653504 -0.098761202
-0.7404783 0.66243399 -0.11345968
-0.74178211 0.65934294 -0.12258139
-0.7406857 0.65825298 -0.1344905
-0.73933432 0.65699979 -0.14743148
-0.7389068 0.65491351 -0.15844568
-0.73756871 0.65275206 -0.17293683
-0.73518461 0.65071267 -0.18993844
-0.73001838 0.64980392 -0.21172633
-0.72004374 0.64795558 -0.24837588
-0.76520466 0.6106246 0.20395938
-0.76273748 0.61606825 0.19670141
-0.76132638 0.62020515 0.18901776
-0.76098761 0.62395595 0.17769872
-0.75607658 0.63435591 0.16106144
-0.75603533 0.63807737 0.14583504
-0.75298152 0.64383047 0.13601895
-0.75197895 0.64696919 0.12632706
-0.75013214 0.6503828 0.11959929
-0.74815341 0.65382828 0.1130268
-0.74652017 0.65696667 0.10536804
-0.74559514 0.65984937 0.093202382
-0.74439364 0.66291233 0.080158278
-0.74348695 0.66543657 0.066493028
-0.74185915 0.66879613 0.048546131
-0.736563 0.67546915 0.034876541
-0.73392411 0.67907189 0.014723313
-0.73137167 0.68192925 -0.0082448404
-0.73145326 0.68065274 -0.041084871
-0.73105316 0.67855197 -0.071613481
-0.73026143 0.67638081 -0.096058572
-0.7311009 0.6734648 -0.10925493
-0.7329951 0.66945267 -0.12062878
-0.73050526 0.66960109 -0.13415084
-0.72759324 0.67050248 -0.14503275
-0.72498724 0.67042781 -0.15786084
-0.72331755 0.66888985 -0.17145871
-0.7185684 0.66947993 -0.18829786
-0.71344969 0.66737552 -0.21354029
-0.70508465 0.66679767 -0.24132239
-0.75509627 0.62404341 0.20099612
-0.75261065 0.63032516 0.19044004
-0.75090754 0.63524135 0.18057213
-0.74851594 0.64158786 0.16759741
-0.74465159 0.65053839 0.14931112
-0.74407568 0.65326357 0.13999318
-0.74426853 0.65468695 0.13209597
-0.74036977 0.66103423 0.12200963
-0.73774216 0.66533348 0.11431475
-0.73490305 0.66949981 0.10810874
-0.73242246 0.67358121 0.099225457
-0.73073627 0.67688649 0.088595596
-0.72934396 0.67988801 0.076221255
-0.72793748 0.68291638 0.061091986
-0.72432186 0.68796993 0.045334494
-0.72405696 0.689069 0.03042102
-0.72405685 0.68965584 0.010793659
-0.72058618 0.69325264 -0.012502998
-0.71900625 0.693798 -0.04091885
-0.72167511 0.68889062 -0.067932017
-0.72046309 0.68764905 -0.08984279
-0.72275671 0.68292794 -0.10598196
-0.72307259 0.68021554 -0.12030312
-0.71835038 0.68257136 -0.13442125
-0.71381981 0.68491433 -0.14612883
-0.70999387 0.68604282 -0.1589149
-0.70723807 0.68613493 -0.17039123
-0.70215408 0.68686157 -0.18761884
-0.69640891 0.68628101 -0.20984043
-0.69009019 0.68377379 -0.23712643
-0.74359503 0.63917435 0.1962717
-0.74030387 0.64698869 0.18263576
-0.73949771 0.65114572 0.17074068
-0.73726949 0.65647682 0.15959914
-0.73376663 0.66376683 0.14491418
-0.73109698 0.66867963 0.13551663
-0.72851689 0.67347599 0.12527263
-0.72351065 0.68058172 0.11550262
-0.71997762 0.68543774 0.10866153
-0.71770744 0.68895381 0.10118637
-0.71362665 0.69423603 0.09366611
-0.71184274 0.69727566 0.084181713
-0.71283032 0.69761734 0.072131731
-0.71302207 0.69859392 0.059716469
-0.71286705 0.69993877 0.043660992
-0.71321716 0.70033008 0.029309784
-0.71229031 0.70181113 0.010181283
-0.71084365 0.7032113 -0.013970539
-0.70842405 0.70471516 -0.038883332
-0.70879513 0.70212284 -0.068065939
-0.71296019 0.69600099 -0.085266549
-0.71441912 0.69209238 -0.10302161
-0.71095325 0.69305723 -0.1192357
-0.70335916 0.69767511 -0.13614453
-0.7011882 0.69717722 -0.14926165
-0.69497506 0.70130155 -0.15870036
-0.69163592 0.70234683 -0.16837066
-0.68704319 0.70208575 -0.18720912
-0.68244013 0.70015699 -0.20989437
-0.67557295 0.69821891 -0.23683656
-0.72691433 0.6584736 0.1949566
-0.72867627 0.66131476 0.17802719
-0.72842723 0.66543717 0.16305562
-0.72470498 0.67227091 0.15117708
-0.7194323 0.68093333 0.13691956
-0.71370407 0.68895082 0.12638537
-0.71154061 0.6923225 0.11999797
-0.70755918 0.69793579 0.11066006
-0.7045921 0.70213548 0.10274116
-0.70186916 0.70604458 0.09423763
-0.70009969 0.70850708 0.08875885
-0.69996486 0.709569 0.08100019
-0.70058577 0.7100213 0.071058592
-0.70109508 0.71056443 0.059698209
-0.7027198 0.71004043 0.045027547
-0.70294466 0.71060236 0.030217309
-0.70238033 0.71177374 0.0063258152
-0.70094854 0.71302926 -0.016137477
-0.69865797 0.71436549 -0.039483962
-0.70171585 0.70965012 -0.063178951
-0.7040287 0.70574795 -0.079141794
-0.70549432 0.70139445 -0.10160503
-0.7009419 0.7032302 -0.11894427
-0.69307265 0.70747494 -0.13830945
-0.68584472 0.71148615 -0.15298522
-0.68126253 0.71388611 -0.16201234
-0.67711815 0.71594136 -0.17011462
-0.67229838 0.7174967 -0.18224537
-0.66589809 0.71608918 -0.20927501
-0.65650318 0.7160689 -0.23716849
-0.70885998 0.6779617 0.19464185
-0.71047029 0.68205373 0.17330515
-0.712294 0.68384774 0.15808075
-0.70807281 0.69155502 0.14277449
-0.70587268 0.69678997 0.12738719
-0.70173038 0.70241671 0.11910181
-0.70103731 0.70404017 0.11346424
-0.69804094 0.70808126 0.1065822
-0.69660648 0.71032908 0.10085635
-0.69659801 0.71156367 0.091806097
-0.69549683 0.7134426 0.085345254
-0.69504201 0.71459528 0.079184576
-0.69529143 0.71525934 0.07052592
-0.6954119 0.7161655 0.059239065
-0.69587665 0.71678198 0.044489209
-0.69607763 0.71740443 0.028404483
-0.69386584 0.72008494 0.0052795899
-0.6938226 0.71994595 -0.01697121
-0.69316662 0.71965127 -0.040275128
-0.69543581 0.71607117 -0.060092545
-0.69607201 0.71392903 -0.076086161
-0.6961627 0.71094477 -0.099574283
-0.69191676 0.71174949 -0.12109444
-0.68483312 0.71515211 -0.13986082
-0.67816248 0.7183864 -0.15497303
-0.67475397 0.71970387 -0.16350355
-0.67232973 0.72029026 -0.17074741
-0.66946122 0.72001601 -0.18275291
-0.65889646 0.72232236 -0.21001397
-0.64467994 0.72643061 -0.23808893
-0.69002828 0.69737238 0.19373369
-0.69063986 0.70233506 0.17245884
-0.69132902 0.70634475 0.15212259
-0.69189448 0.70914927 0.13560728
-0.69376579 0.70962563 0.12296544
-0.69471042 0.7101098 0.11454915
-0.69340664 0.71203513 0.11042285
-0.6919703 0.71458868 0.10266508
-0.6915972 0.71573945 0.097007008
-0.69051934 0.71779203 0.089205559
-0.6905402 0.71835779 0.084358269
-0.69022611 0.71931627 0.07856219
-0.68953815 0.72076838 0.070923086
-0.68960885 0.72156593 0.061499907
-0.69149674 0.72099746 0.044664594
-0.69146806 0.72180562 0.029471512
-0.68918636 0.7245409 0.0079150886
-0.68973661 0.72377567 -0.020302492
-0.68805957 0.72460932 -0.038927581
-0.690395 0.7212508 -0.056142926
-0.69040518 0.71992324 -0.071071897
-0.68718224 0.71975134 -0.098684236
-0.68248949 0.72041275 -0.12334329
-0.67735197 0.7218923 -0.14165384
-0.67040473 0.72549386 -0.15561542
-0.66929468 0.72468663 -0.16393267
-0.66694384 0.72507205 -0.17162878
-0.66133445 0.72694316 -0.18490645
-0.64982764 0.73011895 -0.21130634
-0.63374446 0.73297298 -0.24722168
-0.67175391 0.71570957 0.19106674
-0.67123332 0.72096481 0.17220794
-0.67237582 0.72429441 0.1526708
-0.67794346 0.72258116 0.13516334
-0.68092491 0.72194762 0.12301585
-0.68388927 0.72025735 0.11629626
-0.68521628 0.72024683 0.10827353
-0.68531146 0.72131383 0.10027245
-0.68454013 0.72305245 0.092735929
-0.68384499 0.72437248 0.08741019
-0.68356854 0.72509801 0.083468119
-0.68291605 0.72627875 0.078389066
-0.68211321 0.72766653 0.072270287
-0.68319099 0.72782757 0.059305071
-0.68456004 0.72755757 0.045139102
-0.68610192 0.72685003 0.030873786
-0.68584037 0.72770908 0.0079053765
-0.68628649 0.72713778 -0.016778056
-0.68459332 0.72802785 -0.036158421
-0.68469028 0.72692718 -0.052688706
-0.68356648 0.72669931 -0.068154127
-0.67891889 0.72764252 -0.098007666
-0.67358301 0.7284365 -0.1251647
-0.66730898 0.73057422 -0.14477579
-0.66447762 0.73073435 -0.15651455
-0.66422155 0.72920832 -0.16451434
-0.66033278 0.73088946 -0.17251443
-0.64668947 0.73839079 -0.19123745
-0.63294939 0.74233891 -0.21979083
-0.61849967 0.74389299 -0.253143
-0.65567361 0.73040955 0.19129562
-0.65968209 0.73160665 0.17196292
-0.66375955 0.73217918 0.15276422
-0.66511248 0.73386493 0.13808568
-0.66891365 0.73246347 0.1266957
-0.67301541 0.73007491 0.11849425
-0.67426629 0.73053583 0.10808501
-0.67556577 0.73055756 0.099481394
-0.67675307 0.73046668 0.091780766
-0.67814352 0.72991566 0.085700004
-0.67765654 0.73076288 0.082263175
-0.67743479 0.73138059 0.078514549
-0.67730929 0.73211993 0.072474375
-0.67954 0.73104514 0.06163112
-0.68053644 0.73102881 0.049669296
-0.68127902 0.73127233 0.03316145
-0.68143664 0.73182941 0.0083559594
-0.67971219 0.73331343 -0.015580516
-0.67944494 0.73279018 -0.037055705
-0.67815551 0.73301029 -0.052924624
-0.67383927 0.73523335 -0.073297713
-0.66936499 0.73618493 -0.099911241
-0.66403651 0.73679561 -0.12723104
-0.6581902 0.73859255 -0.14583108
-0.65681423 0.7374295 -0.15745728
-0.65462286 0.73737818 -0.16656029
-0.64710635 0.7411998 -0.17853918
-0.63217481 0.74813105 -0.20163071
-0.6147627 0.75378572 -0.23210754
-0.59587973 0.75719766 -0.26754263
-0.64117454 0.74190712 0.19613524
-0.64751661 0.74130643 0.17659848
-0.65515799 0.73953438 0.1544568
-0.65982641 0.73822204 0.1402046
-0.66190343 0.73811691 0.1306418
-0.66422842 0.73749737 0.12205834
-0.66306945 0.74042596 0.11003776
-0.66633644 0.73897165 0.099582374
-0.66834889 0.7379369 0.093589019
-0.67160406 0.73582127 0.086689379
-0.67480008 0.73330914 0.083081641
-0.67500639 0.73369137 0.077867514
-0.67566848 0.73396927 0.069001571
-0.67559148 0.73476804 0.060762446
-0.67700505 0.73436049 0.048773263
-0.67634835 0.7359077 0.031508272
-0.67501481 0.73777082 0.00701639
-0.67566573 0.73700348 -0.017369545
-0.67380765 0.73788191 -0.038904214
-0.67024004 0.74019108 -0.053809416
-0.6635599 0.7441261 -0.07723085
-0.65811708 0.74527183 -0.10701314
-0.65401208 0.74513219 -0.13056116
-0.651621 0.74419387 -0.14685219
-0.64690896 0.74604976 -0.1578561
-0.64141437 0.74801111 -0.17049041
-0.62802453 0.75537998 -0.1870462
-0.61367423 0.76045434 -0.21239853
-0.59375669 0.76645044 -0.24496267
-0.57480988 0.76998123 -0.2769883
-0.6305138 0.7504928 0.1980225
-0.63573485 0.75096034 0.17860504
-0.64354892 0.74885867 0.15828922
-0.6498034 0.74652282 0.14303574
-0.65335053 0.74546886 0.13194412
-0.65523248 0.74551274 0.12198831
-0.65680725 0.74563461 0.11239783
-0.66023547 0.74379598 0.10419532
-0.66420528 0.74136453 0.095968584