# vtk DataFile Version 2.0
Grain example
ASCII
DATASET UNSTRUCTURED_GRID
POINTS 900 float
-8.948183 9.245383 1.5217634
-8.5375285 9.6261435 1.4221536
-8.1429743 9.9892878 1.3277457
-7.7409667 10.3456 1.2603
-7.3505559 10.697801 1.2045506
-6.9724897 11.036482 1.1299404
-6.5925463 11.377211 1.0432991
-6.2171206 11.721565 0.9493691
-5.8296452 12.076974 0.87394604
-5.4327271 12.445931 0.79790288
-5.0101164 12.833365 0.73174964
-4.5763508 13.22121 0.65336914
-4.1033823 13.610138 0.53246449
-3.5843874 14.00386 0.364728
-3.0316357 14.410965 0.227279
-2.4796909 14.819869 0.095925279
-1.8645309 15.239522 -0.077768262
-1.0762213 15.716074 -0.18955301
-0.20894901 16.162963 -0.29467395
0.67364911 16.570203 -0.38128876
1.5667819 16.982373 -0.47013709
2.3945847 17.347725 -0.56678399
3.1731571 17.666949 -0.64400637
3.8648294 17.893358 -0.70882183
4.5073995 18.037215 -0.67880145
5.1222906 18.173953 -0.65579319
5.7295288 18.310759 -0.62483645
6.3560759 18.4411 -0.59107455
6.9698256 18.564877 -0.55065743
7.5537892 18.67323 -0.45967086
-8.970035 9.2726733 1.0986635
-8.564211 9.6502785 0.97667648
-8.1749581 10.005465 0.85936498
-7.801475 10.354129 0.77707816
-7.4082159 10.702996 0.6812708
-7.0283373 11.050084 0.59424052
-6.6500194 11.391167 0.49011918
-6.2783918 11.731361 0.39038601
-5.8930889 12.0758 0.28222953
-5.5107104 12.426689 0.18406998
-5.1015019 12.805859 0.06735121
-4.6526289 13.203762 -0.091958849
-4.143893 13.594804 -0.30555487
-3.6306395 13.982223 -0.51186154
-3.0760204 14.37845 -0.75762946
-2.4927646 14.793037 -0.97396114
-1.8327091 15.207431 -1.2107161
-1.0867668 15.651575 -1.454912
-0.18922374 16.094414 -1.564261
0.70502363 16.494808 -1.6545463
1.5934645 16.892328 -1.7501349
2.4334476 17.266827 -1.8410215
3.2385845 17.614986 -1.9223517
3.9636482 17.89655 -2.0012461
4.6305215 18.113474 -2.0731424
5.2561707 18.270438 -2.0717359
5.8687401 18.397944 -2.0347448
6.4694317 18.513873 -1.9707993
7.0582893 18.622297 -1.9000354
7.6308997 18.710672 -1.75714
-8.9934719 9.2960833 0.67323643
-8.5823221 9.6730673 0.51497751
-8.207087 10.025762 0.37567063
-7.8373448 10.366018 0.24316189
-7.4560632 10.714634 0.14337562
-7.0735366 11.066757 0.045394104
-6.7068374 11.403697 -0.061964238
-6.3320445 11.743054 -0.18646827
-5.9576007 12.083093 -0.32645379
-5.581913 12.420182 -0.50904388
-5.1771354 12.783739 -0.70655162
-4.7043285 13.175655 -0.91724798
-4.1849187 13.561741 -1.1808371
-3.6487001 13.954412 -1.4778148
-3.0799124 14.362741 -1.8060851
-2.4724937 14.755102 -2.1099617
-1.7679074 15.165269 -2.3657
-1.0119727 15.587561 -2.6080528
-0.17169107 15.999553 -2.8361223
0.73132029 16.399348 -2.9423597
1.6190464 16.798503 -3.0242493
2.4655094 17.172866 -3.1067719
3.2667377 17.517958 -3.1801597
4.0322363 17.846629 -3.2404753
4.7038629 18.059904 -3.3127998
5.3506438 18.250198 -3.3452807
5.9747475 18.391733 -3.3079601
6.5797101 18.483681 -3.2185049
7.1582759 18.56819 -3.1070193
7.7082033 18.637862 -2.9469041
-9.0062419 9.3075753 0.22046914
-8.604618 9.6827077 0.062170408
-8.227007 10.03586 -0.073410577
-7.8589266 10.374297 -0.20845817
-7.4839609 10.720273 -0.33298718
-7.0987987 11.074187 -0.47159279
-6.7300024 11.418758 -0.62068727
-6.3691408 11.752478 -0.81161007
-6.0049986 12.089773 -1.0273201
-5.6266795 12.427032 -1.2653707
-5.2377722 12.768887 -1.5465311
-4.7403653 13.14695 -1.8444601
-4.2130181 13.5279 -2.1474519
-3.6434652 13.931374 -2.4891958
-3.0373671 14.326336 -2.8474255
-2.387588 14.718921 -3.2260591
-1.6993496 15.108625 -3.5290088
-0.93186398 15.518108 -3.7674678
-0.092199237 15.928354 -3.9927061
0.76752585 16.297862 -4.2105486
1.6379144 16.661681 -4.3275036
2.4827883 17.017029 -4.3995703
3.2955952 17.355508 -4.4618496
4.0553018 17.641 -4.4620734
4.7670038 17.868343 -4.4441219
5.4055447 18.031022 -4.4334107
6.0326571 18.187626 -4.4180977
6.6552976 18.340154 -4.3779921
7.1911973 18.406409 -4.1988702
7.7274905 18.474975 -4.0080573
-9.0134145 9.3209106 -0.2235531
-8.62387 9.6935379 -0.38588934
-8.2359814 10.047214 -0.53508612
-7.8681639 10.389641 -0.68562691
-7.4960326 10.734639 -0.84438329
-7.120927 11.08396 -1.0135442
-6.7430555 11.422352 -1.2225498
-6.3859205 11.756261 -1.4491588
-6.0170466 12.093892 -1.7021223
-5.6397309 12.420348 -2.0455711
-5.253154 12.754527 -2.3896626
-4.7384721 13.106992 -2.7336978
-4.1757543 13.49112 -3.0928022
-3.5950393 13.879402 -3.45351
-2.9476115 14.273962 -3.8433915
-2.2822355 14.669675 -4.2348193
-1.5735177 15.048542 -4.583209
-0.80981433 15.397591 -4.8770653
0.041979444 15.790559 -5.1159227
0.87539084 16.135297 -5.3201359
1.6945798 16.467693 -5.5089736
2.5262279 16.789488 -5.5626723
3.3109116 17.089266 -5.5395133
4.0460153 17.34719 -5.4944137
4.7686528 17.568706 -5.4356717
5.4486096 17.762261 -5.3871084
6.0670732 17.902185 -5.3418467
6.6568208 18.030532 -5.2519512
7.2204772 18.150694 -5.1544086
7.7535193 18.229355 -4.9878021
-9.0165115 9.3365578 -0.67615091
-8.6311618 9.7088692 -0.8599905
-8.2515896 10.062011 -1.0222775
-7.8817208 10.404523 -1.1993901
-7.5141362 10.74559 -1.4098404
-7.1374841 11.085862 -1.6208554
-6.7582635 11.42893 -1.8577455
-6.3898489 11.757995 -2.1557479
-6.0150701 12.082208 -2.5030982
-5.6238175 12.403013 -2.8541144
-5.1911705 12.7389 -3.2224785
-4.6673409 13.09284 -3.6192035
-4.1185489 13.454335 -4.0216015
-3.5012718 13.83706 -4.4212503
-2.8384407 14.213367 -4.8307184
-2.1537995 14.579244 -5.2462958
-1.4287062 14.94386 -5.6315457
-0.6474388 15.276224 -5.9304765
0.1559665 15.627208 -6.193469
0.95445549 15.93898 -6.3497665
1.7429057 16.204547 -6.4227317
2.5176587 16.465508 -6.4905495
3.2955273 16.747688 -6.5132005
4.042013 16.979227 -6.4545494
4.7661621 17.194362 -6.3894122
5.4510228 17.406976 -6.2948587
6.0719438 17.560318 -6.2239754
6.6499195 17.68651 -6.1190212
7.2143405 17.811264 -6.0130301
7.7729828 17.939341 -5.9051263
-9.0150802 9.3550045 -1.1515352
-8.6391939 9.7233731 -1.3650227
-8.2637486 10.076264 -1.5636073
-7.8961238 10.414151 -1.7887528
-7.5253986 10.747923 -2.0237218
-7.1548182 11.086888 -2.2740535
-6.7633732 11.424531 -2.595724
-6.3704427 11.745566 -2.9441036
-5.9873437 12.057709 -3.3075891
-5.6017652 12.373698 -3.6822367
-5.1137683 12.729816 -4.0834214
-4.5683075 13.092352 -4.4911197
-3.9845554 13.445601 -4.9274134
-3.3702747 13.769287 -5.3812819
-2.7086796 14.123334 -5.8065973
-2.0245845 14.481115 -6.2152222
-1.2782943 14.818023 -6.5993204
-0.52255466 15.103705 -6.880534
0.22994856 15.386833 -7.0726781
0.97668083 15.625037 -7.195072
1.7644921 15.890603 -7.2748647
2.5392297 16.149436 -7.3475005
3.3091904 16.394269 -7.4126057
4.0226918 16.598264 -7.3898339
4.7342749 16.805291 -7.293862
5.4254769 17.022701 -7.1969729
6.0646276 17.211023 -7.0840138
6.6451501 17.322319 -6.9780979
7.2089736 17.426592 -6.8758508
7.7717833 17.539409 -6.7532388
-9.0224611 9.3723644 -1.6556693
-8.6487117 9.7319378 -1.9168312
-8.278822 10.07979 -2.1686522
-7.9065114 10.409932 -2.4158587
-7.5320884 10.736997 -2.7191972
-7.147243 11.065804 -3.0508772
-6.7497892 11.394473 -3.3924672
-6.3491531 11.718848 -3.7437457
-5.96057 12.038395 -4.1138155
-5.535394 12.367164 -4.5085416
-5.0238085 12.718206 -4.9318964
-4.4575479 13.05687 -5.3653188
-3.8410064 13.394283 -5.8162392
-3.2209421 13.714655 -6.2682865
-2.5725401 14.02907 -6.7089015
-1.8862621 14.344764 -7.1159138
-1.1641023 14.621271 -7.4403599
-0.45926729 14.847519 -7.6762525
0.28775588 15.097594 -7.858788
1.0307259 15.334456 -7.9905479
1.7918146 15.577951 -8.1196399
2.5665652 15.825477 -8.1931428
3.3110984 16.0484 -8.2191366
4.0052721 16.224525 -8.2311811
4.6968304 16.397277 -8.1987725
5.3890213 16.581482 -8.0913791
6.0329056 16.747132 -7.9550335
6.6644879 16.896098 -7.8298892
7.2161751 17.002097 -7.7170596
7.760888 17.104759 -7.5927289
-9.0186699 9.3719036 -2.2307828
-8.6458806 9.7271931 -2.5230678
-8.2748758 10.059087 -2.8320137
-7.9024035 10.386149 -3.1533279
-7.5197389 10.709889 -3.488219
-7.1344519 11.033278 -3.8338599
-6.7358084 11.360034 -4.173488
-6.3421045 11.687682 -4.5134947
-5.9362341 12.011339 -4.8937375
-5.4541388 12.332782 -5.325018
-4.9174379 12.672314 -5.7678483
-4.3215078 13.009674 -6.228921
-3.7023061 13.319449 -6.6893029
-3.0658682 13.616484 -7.1331024
-2.4535696 13.888722 -7.5505296
-1.8108007 14.156831 -7.9048171
-1.0792581 14.389784 -8.1733918
-0.36344423 14.600587 -8.4052432
0.36443473 14.817199 -8.5933
1.1032065 15.05268 -8.7564132
1.8492344 15.279596 -8.8789437
2.56479 15.484702 -8.9721864
3.2991743 15.690885 -9.0115696
4.0031062 15.836439 -9.0031237
4.701934 15.965154 -8.9982434
5.352627 16.109275 -8.9395928
5.9993812 16.274848 -8.806168
6.6460924 16.446814 -8.6581982
7.2175689 16.5718 -8.5299143
7.752239 16.659192 -8.3909347
-9.0053898 9.3582236 -2.8499387
-8.6393956 9.6985446 -3.1969666
-8.2755303 10.02796 -3.546862
-7.8969213 10.353152 -3.8882154
-7.5188125 10.67244 -4.230091
-7.1295573 10.992933 -4.584243
-6.7310463 11.316928 -4.9314061
-6.3163995 11.62989 -5.3196745
-5.8748458 11.949048 -5.7179398
-5.3608163 12.282794 -6.1590128
-4.791626 12.613402 -6.6098024
-4.1756063 12.922377 -7.0677161
-3.5731558 13.202043 -7.50846
-2.9713139 13.466054 -7.9271085
-2.3738599 13.727425 -8.3078568
-1.7066083 13.957786 -8.6125197
-0.97568081 14.157917 -8.8731373
-0.26115377 14.364494 -9.1133465
0.44503087 14.552988 -9.3146794
1.160255 14.771769 -9.458418
1.8939413 14.976086 -9.550969
2.6067564 15.168549 -9.6405154
3.3207636 15.31651 -9.7131397
4.0129553 15.434733 -9.7331545
4.6932333 15.551188 -9.7234521
5.3361098 15.67495 -9.6911129
5.9656613 15.80933 -9.6355649
6.6042951 15.974061 -9.4925579
7.2256387 16.114521 -9.3310261
7.777704 16.188805 -9.1789226
-8.9949259 9.3317893 -3.5176632
-8.6365823 9.6669381 -3.8914251
-8.2752768 9.9940781 -4.2601548
-7.8945674 10.312981 -4.6277124
-7.5079813 10.628407 -4.9858454
-7.1123786 10.930248 -5.3589483
-6.6996994 11.242059 -5.7502697
-6.2807124 11.557963 -6.139276
-5.788062 11.872345 -6.5535938
-5.2493563 12.194248 -6.992468
-4.6767755 12.496957 -7.4292048
-4.0825053 12.783762 -7.8459196
-3.494727 13.057568 -8.2611131
-2.8939176 13.317786 -8.6476929
-2.2664214 13.552585 -8.9761412
[...]
POINT_DATA 900
VECTORS normals float
-0.68905382 0.71993037 0.083096886
-0.68158293 0.72731215 0.080385034
-0.67895537 0.7300792 0.077485283
-0.6757488 0.73304846 0.077482369
-0.67091993 0.73742501 0.077915391
-0.66879681 0.73954036 0.076097893
-0.66827093 0.73987068 0.077494156
-0.67144166 0.73697733 0.077656441
-0.66717165 0.74118428 0.074349521
-0.66128038 0.74664819 0.072282354
-0.64952488 0.75719941 0.06903969
-0.63412036 0.77120725 0.055953099
-0.61081245 0.79031452 0.048073937
-0.59461668 0.80299924 0.040289254
-0.57730074 0.81586928 0.032881248
-0.55851836 0.829281 0.018715449
-0.53272447 0.84621723 0.011001829
-0.49719745 0.86760262 0.0077715288
-0.46661159 0.88439649 0.010792527
-0.43637921 0.89975195 0.0044286532
-0.40304769 0.91517722 0.0017937389
-0.37259255 0.9279949 0.00050183968
-0.32926394 0.94419186 0.0093269125
-0.29136015 0.956468 0.016680418
-0.2581003 0.96581186 0.02432443
-0.23521427 0.97137111 0.033352946
-0.21452339 0.97540661 0.050612799
-0.20354896 0.97737107 0.057563935
-0.19038508 0.97889278 0.074313109
-0.1744564 0.98038491 0.091708209
-0.68869292 0.72093344 0.077181831
-0.6809397 0.72850154 0.074877399
-0.67808606 0.731414 0.072338546
-0.67394176 0.73521899 0.072495094
-0.67154732 0.73768169 0.069641361
-0.66980946 0.73932552 0.068942503
-0.66789253 0.74097138 0.069864049
-0.66814968 0.74081237 0.069087197
-0.66304544 0.74593126 0.062907094
-0.6555646 0.75310304 0.055415436
-0.64485482 0.76270413 0.049443652
-0.62516136 0.77996795 0.028692584
-0.60892524 0.79306639 0.015992392
-0.59319134 0.80504081 0.0057737139
-0.57793814 0.81603012 -0.0090745273
-0.55505978 0.83162369 -0.017625843
-0.53091219 0.84690504 -0.029733867
-0.49877601 0.86571825 -0.041885574
-0.46831879 0.88218811 -0.049210316
-0.439784 0.89640831 -0.055156014
-0.4070149 0.9111901 -0.063808054
-0.37178055 0.92585866 -0.067564565
-0.33249361 0.94066139 -0.067853954
-0.30086817 0.95177144 -0.060078935
-0.26362808 0.9628694 -0.058161423
-0.239289 0.96967892 -0.049634376
-0.21324926 0.9757453 -0.049455577
-0.20140898 0.97833524 -0.047901899
-0.19043208 0.98092875 -0.038915393
-0.18638307 0.98203958 -0.02931919
-0.68982929 0.72052108 0.070604085
-0.67992716 0.73012947 0.067897116
-0.67723077 0.73282366 0.065787376
-0.67541453 0.73448984 0.065877805
-0.6750395 0.73504649 0.063469143
-0.67236607 0.73759441 0.062276484
-0.6682456 0.74120643 0.0637248
-0.66611162 0.74353851 0.05870086
-0.65926979 0.75007864 0.052396304
-0.6498876 0.75895269 0.040458771
-0.63804685 0.76948714 0.028031437
-0.61610256 0.78764407 0.0058701601
-0.6002943 0.7997419 -0.0077234291
-0.58579725 0.81005108 -0.025667791
-0.56797669 0.8220079 -0.041297725
-0.55028618 0.83309487 -0.056018342
-0.52548654 0.8484818 -0.062789565
-0.49114475 0.8674493 -0.079426341
-0.46361947 0.88104503 -0.093896989
-0.43060706 0.89570994 -0.11082088
-0.3948668 0.91039719 -0.12351994
-0.36468953 0.92080226 -0.13829228
-0.33753426 0.92884791 -0.1526833
-0.30211173 0.94162511 -0.14856192
-0.26904223 0.95192948 -0.14644639
-0.23869888 0.96003692 -0.14612311
-0.21213647 0.96741295 -0.13824005
-0.18922819 0.97354244 -0.12809293
-0.1760244 0.97551234 -0.13187523
-0.16650109 0.97601955 -0.14022562
-0.68853301 0.72255827 0.061901931
-0.68021411 0.73047056 0.061004355
-0.677459 0.73320637 0.058802357
-0.67620219 0.73451988 0.056843216
-0.67270959 0.73816787 0.050695201
-0.67393806 0.73709316 0.050011697
-0.6717298 0.73939604 0.045525605
-0.6644324 0.7464517 0.036598404
-0.65512853 0.75500253 0.027888795
-0.63946438 0.76877844 0.0080630851
-0.62883911 0.77751803 -0.0052039431
-0.60958811 0.79223022 -0.027814136
-0.59489478 0.80288893 -0.038334886
-0.57809052 0.81392957 -0.057706185
-0.56215627 0.82393233 -0.071525123
-0.54400635 0.83488012 -0.083858619
-0.51288852 0.85239593 -0.10181622
-0.48221278 0.86805136 -0.11814262
-0.44749994 0.88323596 -0.14013584
-0.41475759 0.89580666 -0.15970774
-0.37681359 0.90748464 -0.18569638
-0.34714541 0.91650615 -0.19876253
-0.3268874 0.92043186 -0.21435909
-0.30136443 0.92754027 -0.22101701
-0.26482364 0.93750464 -0.22572878
-0.23960592 0.94501085 -0.22258367
-0.20707463 0.95084989 -0.23022724
-0.17561669 0.95711921 -0.23039445
-0.14576234 0.96219538 -0.23007258
-0.1244415 0.96814038 -0.21729821
-0.68807421 0.72368075 0.053292175
-0.68173625 0.72985378 0.050489128
-0.67838818 0.73298264 0.050258545
-0.67554613 0.73586215 0.046306917
-0.67284302 0.73878571 0.038444058
-0.67261352 0.73926842 0.032760655
-0.67010199 0.74178931 0.026682064
-0.66418255 0.74746096 0.012792564
-0.65056659 0.75944821 -0.0012377652
-0.63409133 0.77281959 -0.026039734
-0.62227306 0.78194726 -0.036533746
-0.60632647 0.79342226 -0.053379137
-0.58941702 0.80523595 -0.064673427
-0.56960518 0.81737925 -0.086261802
-0.55392369 0.82576981 -0.10617333
-0.53428428 0.83660629 -0.12095547
-0.50058063 0.85396372 -0.14200352
-0.470056 0.86727899 -0.1639345
-0.42784763 0.88144221 -0.20001508
-0.39130684 0.89377628 -0.21918696
-0.35813232 0.90335247 -0.23599906
-0.32514209 0.90955204 -0.25883916
-0.30968269 0.91207169 -0.26874126
-0.28813449 0.91739501 -0.2745267
-0.25716947 0.92437084 -0.28178434
-0.22796941 0.92874395 -0.29234333
-0.1957327 0.93336926 -0.30084968
-0.15847936 0.94068029 -0.30000814
-0.12355299 0.94439686 -0.3047117
-0.093815137 0.94647277 -0.3088495
-0.68846495 0.72403404 0.042316906
-0.68444411 0.72802967 0.038846604
-0.68024688 0.73213028 0.035347199
-0.67640096 0.73593451 0.029700899
-0.67304258 0.73931134 0.020795075
-0.67114352 0.74119382 0.014074637
-0.66749738 0.74461162 0.00088692561
-0.65647236 0.75411358 -0.018887751
-0.64251162 0.76554339 -0.033498115
-0.62711328 0.77724118 -0.051235578
-0.61492321 0.7863465 -0.059402215
-0.59812074 0.79806063 -0.073149245
-0.57641521 0.81193965 -0.092192822
-0.55523386 0.8237871 -0.1144123
-0.54075672 0.82940127 -0.14027009
-0.51939716 0.83875709 -0.16344152
-0.48643818 0.85315787 -0.18841327
-0.44232994 0.87007989 -0.21749759
-0.40710494 0.87919107 -0.2475654
-0.36450051 0.89069642 -0.2716602
-0.33531245 0.89811499 -0.28452595
-0.31730693 0.8999554 -0.29899264
-0.29777626 0.90338776 -0.30857714
-0.27386552 0.9054074 -0.32439964
-0.24391718 0.90987351 -0.3356108
-0.21208365 0.91232111 -0.35027233
-0.17576707 0.91570636 -0.36136933
-0.140429 0.92132751 -0.3625401
-0.10909091 0.92467747 -0.36478864
-0.073777575 0.92750217 -0.36646499
-0.68862845 0.72439743 0.032236958
-0.68660606 0.72657047 0.025835494
-0.68149286 0.73164458 0.016238622
-0.67551166 0.73730945 0.00766666
-0.67320633 0.73945326 0.0014547324
-0.67101146 0.74136199 -0.011226435
-0.66154297 0.74945191 -0.026129358
-0.64911957 0.75955093 -0.04154714
-0.63249534 0.77252809 -0.056124799
-0.62325121 0.77906945 -0.06788757
-0.60768209 0.79063704 -0.074936963
-0.58749671 0.80400028 -0.091821356
-0.56119283 0.8179639 -0.12648188
-0.54321098 0.82621861 -0.14928039
-0.52725038 0.83132581 -0.1757966
-0.50082187 0.84120251 -0.20385236
-0.46705316 0.85621772 -0.22079983
-0.4210964 0.87006254 -0.25625962
-0.38179077 0.87845951 -0.28730594
-0.3450249 0.88615282 -0.3093396
-0.31854427 0.88901373 -0.32891358
-0.29609195 0.89204529 -0.34144509
-0.275161 0.89260512 -0.35713095
-0.2459609 0.89616309 -0.36931688
-0.2214226 0.89731025 -0.38184597
-0.18754898 0.89992944 -0.39363992
-0.14529948 0.90142869 -0.40781659
-0.12248567 0.90239887 -0.41312654
-0.082332667 0.90423063 -0.41903257
-0.044265816 0.90480328 -0.42352279
-0.69030827 0.72334017 0.015921204
-0.68603896 0.72754124 0.0058560264
-0.68029213 0.73292004 -0.0055526642
-0.67474838 0.73788688 -0.015413696
-0.6717106 0.74042742 -0.023918462
-0.66653881 0.74465856 -0.034779884
-0.65590019 0.75305771 -0.051952189
-0.64010755 0.76568279 -0.063183847
-0.62848921 0.77458275 -0.070872252
-0.61829628 0.78164165 -0.082134319
-0.59852565 0.79489276 -0.099561807
-0.57140276 0.81063639 -0.12793567
-0.54606486 0.82244481 -0.15936658
-0.5313292 0.82866612 -0.17607314
-0.51078777 0.83540777 -0.20295247
-0.48095189 0.84655832 -0.22808835
-0.44465981 0.85969174 -0.25141156
-0.40005602 0.8713562 -0.2840661
-0.34987977 0.88009705 -0.3209569
-0.32108106 0.88075051 -0.34811706
-0.30099439 0.88018131 -0.36699215
-0.27890624 0.88126866 -0.38154535
-0.25371575 0.88085065 -0.39966293
-0.22667784 0.8815668 -0.41407383
-0.19316059 0.88090497 -0.43208265
-0.1572605 0.88439472 -0.43944864
-0.12343285 0.88578567 -0.44737911
-0.084445491 0.88387435 -0.46003815
-0.060613091 0.8847728 -0.462064
-0.029394336 0.8846399 -0.46534742
-0.68825843 0.72545622 -0.0036891927
-0.68586308 0.72755609 -0.015936291
-0.68056558 0.73218938 -0.02700377
-0.67428841 0.73765755 -0.034590042
-0.67051668 0.74055095 -0.044628145
-0.65992994 0.74935998 -0.05433314
-0.65113394 0.75592952 -0.067787481
-0.63843219 0.76563839 -0.078754004
-0.62767283 0.77318153 -0.090648433
-0.61079607 0.78434561 -0.10830568
-0.58207035 0.80179062 -0.1353732
-0.55690172 0.81514945 -0.1593482
-0.53177221 0.82626446 -0.1857562
-0.51245003 0.83308613 -0.20823656
-0.49832002 0.83804955 -0.22214883
-0.45907863 0.85283617 -0.24883183
-0.42136013 0.86409238 -0.27531802
-0.37219974 0.87252358 -0.3164964
-0.32743688 0.87475792 -0.35718856
-0.30418011 0.87439666 -0.37802769
-0.2836283 0.87347755 -0.39571702
-0.261521 0.8717588 -0.41429863
-0.23313322 0.87051824 -0.43341308
-0.2017179 0.86738581 -0.4549195
-0.16548262 0.86700179 -0.47002489
-0.13558234 0.86588912 -0.48151164
-0.10671127 0.8674582 -0.48593104
-0.076657335 0.86907617 -0.48870263
-0.043818806 0.86912498 -0.49264762
-0.0073609146 0.86871541 -0.49525686
-0.68888894 0.72455333 -0.02131902
-0.68410319 0.72853838 -0.035137488
-0.67957692 0.73242116 -0.041646736
-0.67221236 0.73860936 -0.05086008
-0.66545753 0.74362982 -0.064660429
-0.65458659 0.75202327 -0.077313629
-0.6477384 0.75692211 -0.086625008
-0.63713462 0.76413872 -0.10075462
-0.61966204 0.77523809 -0.12257598
-0.6006824 0.78784982 -0.13591657
-0.56725926 0.80680822 -0.16515881
-0.53882674 0.82214915 -0.18367502
-0.51955591 0.83048209 -0.20090085
-0.49411938 0.83847769 -0.22978514
-0.47883706 0.8435777 -0.24308789
-0.44249843 0.85581048 -0.26792454
-0.39124164 0.86875866 -0.30362539
-0.34571849 0.87259454 -0.34504708
-0.30365398 0.87235874 -0.38312465
-0.28388251 0.86923963 -0.40476311
-0.26525515 0.86575918 -0.42438278
-0.24118406 0.86308119 -0.44375795
-0.21414082 0.86189104 -0.45966025
-0.1769521 0.85851802 -0.48128449
-0.14394326 0.85743038 -0.49405818
-0.12185926 0.85500083 -0.50410704
-0.099442069 0.8547569 -0.50941331
-0.063003774 0.85457995 -0.51548388
-0.025179455 0.85557114 -0.51707254
0.028883522 0.85126532 -0.52393998
-0.68786192 0.72469587 -0.040766119
-0.68514684 0.72673096 -0.049355158
-0.67760727 0.73301431 -0.059484593
-0.66602357 0.74243557 -0.072125072
-0.66040269 0.74625704 -0.083478832
-0.65243799 0.75082505 -0.10289032
-0.64487707 0.75562148 -0.1147595
-0.6329068 0.76426029 -0.12383533
-0.61025284 0.77833035 -0.14762566
-0.58723035 0.79370555 -0.15871991
-0.5564942 0.81048163 -0.18284891
-0.5251338 0.82627795 -0.20371363
-0.50586627 0.83407403 -0.22004508
-0.4796241 0.84314287 -0.2430449
-0.45896816 0.84752497 -0.26655141
-0.42092175 0.85841675 -0.29316474
-0.36573134 0.87105643 -0.32787389
-0.31920548 0.87439178 -0.36544065
-0.28068381 0.86879466 -0.40793682
-0.26503515 0.86318934 -0.42972145
-0.25130257 0.86065738 -0.44284975
-0.22463235 0.85707677 -0.46363748
-0.19122593 0.85462441 -0.48275228
-0.15675188 0.85371295 -0.49659144
-0.13043065 0.85195385 -0.50711191
-0.10878421 0.84759377 -0.51937539
-0.081584381 0.84470429 -0.52897888
-0.044208365 0.84045868 -0.54006928
-0.0022279948 0.83591719 -0.54885106
0.067090404 0.83135556 -0.55167636
-0.69165591 0.71978945 -0.059289463
-0.68601665 0.72457768 -0.066093479
-0.67622998 0.73254277 -0.078064733
-0.66309315 0.74216086 -0.097492184
-0.65425437 0.74802232 -0.11141736
-0.64798171 0.75111971 -0.1262493
-0.64039542 0.75580564 -0.13657066
-0.62671345 0.76434364 -0.15168738
-0.60193109 0.78097891 -0.166586
-0.57620507 0.79814421 -0.17593617
-0.54324437 0.81568655 -0.1988492
-0.51674554 0.82840328 -0.21615283
-0.49170631 0.83493773 -0.24719203
-0.46580975 0.84517225 -0.26211664
-0.43821953 0.8501738 -0.29183584
-0.39631034 0.86209244 -0.31580808
-0.33552464 0.87445553 -0.35035803
-0.29103143 0.87434798 -0.38835075
-0.2655018 0.8641985 -0.4273988
-0.2504111 0.85684138 -0.45068518
-0.23395552 0.85343105 -0.46574698
-0.20953101 0.84839127 -0.48613682
-0.17514412 0.8473575 -0.50130809
-0.14273093 0.84567338 -0.51426104
-0.11632021 0.84735608 -0.51812863
-0.091682154 0.84282489 -0.53032121
-0.063965314 0.83716923 -0.54319068
-0.024681986 0.82918838 -0.55842405
0.023726429 0.81983637 -0.57210609
0.079249405 0.81256491 -0.57745804
-0.69204817 0.71758514 -0.07836388
-0.68403271 0.72366628 -0.091686293
-0.67152335 0.73312273 -0.10764509
-0.65775105 0.74294941 -0.12405535
-0.6542177 0.7445066 -0.13307566
-0.64495715 0.75071114 -0.14304915
-0.6330896 0.75877948 -0.15313803
-0.61842037 0.76857727 -0.16384513
-0.59615166 0.78268384 -0.17891115
-0.5641526 0.80115201 -0.19971807
-0.53606761 0.81427585 -0.22267995
-0.50203911 0.83062595 -0.24086775
-0.4790166 0.83639174 -0.26644314
-0.45626526 0.84370259 -0.28282141
-0.42371724 0.85327179 -0.3039588
-0.36650612 0.86663208 -0.33855886
-0.30433993 0.87328228 -0.38046718
-0.26032742 0.86967539 -0.41939761
-0.24246749 0.86143051 -0.44625888
-0.23139337 0.8555261 -0.4631762
-0.21411026 0.84984251 -0.48158542
-0.18772068 0.84328222 -0.50362293
-0.15894856 0.84149319 -0.51635702
-0.13029044 0.84020247 -0.5263879
-0.10179057 0.83718243 -0.53736789
-0.071242239 0.83452222 -0.54634897
-0.036818606 0.82662803 -0.56154296
0.0034529446 0.81591296 -0.57816444
0.052696021 0.80624753 -0.58922666
0.095429804 0.79459147 -0.59959783
-0.69156402 0.71523269 -0.10090293
-0.68106879 0.72287379 -0.11661385
-0.66784492 0.73294338 -0.12952672
-0.65852902 0.73939388 -0.14012931
-0.65188358 0.74399615 -0.14668857
-0.64416382 0.74972482 -0.15154427
-0.63074934 0.75762698 -0.16779935
-0.60930048 0.77277074 -0.17770286
-0.58321322 0.78734714 -0.19986698
-0.56109411 0.79928725 -0.21520524
-0.52160398 0.81718682 -0.24522436
-0.4985937 0.82662834 -0.26094042
-0.47083191 0.83661654 -0.27998228
-0.44046506 0.84710224 -0.29733538
-0.40452934 0.85521136 -0.32399003
-0.34457669 0.86109051 -0.37388507
-0.27527266 0.8698922 -0.40928295
-0.23785519 0.86595253 -0.43994446
-0.22743163 0.85761472 -0.461272
-0.20918234 0.85248093 -0.47908143
-0.19517569 0.84598439 -0.49620245
-0.17000318 0.84002199 -0.51523002
-0.14274701 0.83591823 -0.52996604
-0.11835151 0.83331523 -0.53998023
-0.08855716 0.83144467 -0.54850469
-0.056510836 0.82775143 -0.55824197
-0.0083226196 0.82060959 -0.57142858
0.040802889 0.80717668 -0.58889806
0.083057143 0.79195969 -0.60489781
0.12619901 0.77857646 -0.61472962
-0.68765593 0.71548308 -0.12334216
-0.6734663 0.72629765 -0.13760402
-0.66707236 0.73078963 -0.1447791
-0.65742319 0.73830224 -0.15068033
-0.64687229 0.74604378 -0.15803454
-0.6380039 0.75275665 -0.16219881
-0.62477644 0.76013068 -0.17848178
-0.60162039 0.77478372 -0.19432728
-0.57906501 0.78492595 -0.22039728
-0.54670755 0.80185643 -0.24111639
-0.51841155 0.814314 -0.26104055
-0.48383348 0.82997981 -0.27755844
-0.46300996 0.83620982 -0.2938961
-0.42566905 0.84465314 -0.32460272
-0.3764985 0.85391376 -0.35927728
-0.31184429 0.85896957 -0.40610887
-0.24935329 0.86476354 -0.43589787
-0.22426124 0.86126198 -0.45599857
-0.2105251 0.85708064 -0.47020416
-0.1952058 0.85242632 -0.48504028
-0.17678233 0.84617788 -0.50272359
-0.1488548 0.84033174 -0.52123393
-0.12596221 0.8342696 -0.53677533
-0.09761397 0.83050932 -0.54838471
-0.072911252 0.82572837 -0.55933586
-0.035249457 0.82162938 -0.56893113
0.011153802 0.81538286 -0.57881464
0.072979163 0.8004214 -0.59497868
0.11289334 0.79007607 -0.60252378
0.1476257 0.77796537 -0.61071805
-0.68513126 0.71481348 -0.14013156
-0.67271809 0.72480724 -0.14867693
-0.66577774 0.72972124 -0.15571416
-0.65822049 0.73588746 -0.15879368
-0.6496502 0.74192683 -0.16582881
-0.63505714 0.75260294 -0.17404382
-0.61408374 0.76487333 -0.19460204
-0.58650548 0.78015849 -0.21763283
-0.56267324 0.79020714 -0.24284048
-0.53909568 0.80153559 -0.25868233
-0.50648609 0.81666382 -0.27664425
-0.4776122 0.82828239 -0.2929759
-0.44253134 0.83890316 -0.31687142
-0.3990615 0.84256438 -0.36171147
-0.34068559 0.8486785 -0.40457154
-0.28132274 0.85539857 -0.43491471
-0.23644823 0.8562237 -0.4593182
-0.21094621 0.85686453 -0.47040926
-0.19962331 0.85262334 -0.48289126
-0.18452608 0.84764951 -0.49743385
-0.15976019 0.84208811 -0.51513522
-0.13570737 0.83895999 -0.52700062
-0.10953406 0.83259065 -0.54295037
-0.082313248 0.82955519 -0.55232482
-0.055692214 0.82071506 -0.56861688
-0.016509496 0.81505965 -0.57914178
0.031940429 0.80739149 -0.5891509
0.09037843 0.79816247 -0.59562438
0.12725629 0.78809865 -0.60225107
0.1669662 0.77533269 -0.60908251
-0.68184679 0.71549617 -0.15215186
-0.67221188 0.72341417 -0.15749008
-0.66757947 0.72665258 -0.1622149
-0.66180548 0.73108725 -0.16590642
-0.64751957 0.74178413 -0.17457008
-0.62609307 0.75552496 -0.19284579
-0.6008073 0.76904645 -0.21817
-0.57520624 0.78190654 -0.240333
-0.55292041 0.79134799 -0.26085894
-0.53113376 0.8006797 -0.27714428
-0.4996484 0.81600799 -0.29065862
-0.46827006 0.82673931 -0.31180965
-0.42009582 0.83715115 -0.35028196
-0.37698474 0.84085604 -0.38838592
-0.31644011 0.83961624 -0.44148638
-0.26299356 0.84750028 -0.46106146
-0.22456114 0.85067401 -0.47531677
-0.20626634 0.85186627 -0.48143334
-0.18828627 0.84940357 -0.49301304
-0.17195402 0.84267255 -0.51023013
-0.13887604 0.84044873 -0.52379326
-0.1108876 0.83525651 -0.53856337
-0.088308957 0.82755894 -0.5543895
-0.067691162 0.82328838 -0.56357267
-0.038232924 0.81611659 -0.57662116
0.0099728032 0.80755332 -0.58971024
0.065652462 0.79645133 -0.60112813
0.11981052 0.78559612 -0.60702898
0.15391521 0.77583607 -0.61187294
0.20030801 0.75612774 -0.62301488
-0.67965716 0.71565714 -0.16093787
-0.67247728 0.72150758 -0.16492762
-0.66733016 0.72541075 -0.16867039
-0.65738082 0.73279449 -0.17567783
-0.64186207 0.74214626 -0.19295598
-0.61572293 0.75955009 -0.20968771
-0.59136922 0.77151418 -0.2346238
-0.56651023 0.78222149 -0.25922134
-0.55142319 0.78778821 -0.27444889
-0.52726125 0.79625595 -0.29660079
-0.491801 0.80897719 -0.32200572
-0.45052658 0.82243501 -0.34731318
-0.40567423 0.82693612 -0.38936497
-0.35097509 0.83418607 -0.42538228
-0.29280578 0.83645069 -0.46326561
-0.25257935 0.8403525 -0.47959498
-0.22383481 0.84519398 -0.4853299
-0.20561359 0.84298337 -0.49709365
-0.1795151 0.841242 -0.5099865
-0.15334496 0.83928588 -0.52161723
-0.12741258 0.83538991 -0.53468657
-0.097839739 0.83126678 -0.54719551
-0.070034471 0.82489737 -0.56092736
-0.045570809 0.81889004 -0.57213845
-0.017096998 0.81438497 -0.58007311
0.034173637 0.80573391 -0.59129099
0.09693302 0.7939042 -0.6002667
0.15829414 0.77096955 -0.61688647
0.19998191 0.75351803 -0.62627295
0.23261613 0.73929629 -0.63192621
-0.67881753 0.71542156 -0.16546528
-0.67232973 0.72029026 -0.17074741
-0.66533472 0.72481729 -0.17880044
-0.65216914 0.73353614 -0.19131163
-0.63320456 0.74373576 -0.2142641
-0.61155993 0.75588092 -0.23374875
-0.58256347 0.77118825 -0.25668753
-0.55770902 0.78066168 -0.28200708
-0.54419227 0.78440645 -0.2975925
-0.51562741 0.79522694 -0.31897099
-0.47985612 0.80615115 -0.34620575
-0.43860773 0.81602916 -0.37645674
-0.38694479 0.82246697 -0.41691943
-0.32786546 0.83008118 -0.45107591
-0.27810956 0.83494739 -0.47488728
-0.23970098 0.84115241 -0.48477424
-0.21422475 0.8412196 -0.49644469
-0.19306375 0.84046346 -0.50630777
-0.16919157 0.83525784 -0.52318119
-0.140591 0.83251479 -0.53586687
-0.10932867 0.82697802 -0.55150212
-0.080185732 0.82471737 -0.55983167
-0.055915597 0.8221701 -0.56648899
-0.03529135 0.82418262 -0.56522343
0.0067820894 0.81750158 -0.57588642
0.066628796 0.80432858 -0.59043724
0.13626296 0.78150546 -0.60883629
0.19276444 0.76360145 -0.6162424
0.2309187 0.74034778 -0.63131745
0.2744906 0.7111576 -0.6472324
-0.67818767 0.71389457 -0.17440193
-0.67055155 0.71920558 -0.1819449