# vtk DataFile Version 2.0
Grain example
ASCII
DATASET UNSTRUCTURED_GRID
POINTS 900 float
-2.8487808 3.6053245 22.616227
-2.8489596 3.9330594 22.364214
-2.8494862 4.2613042 22.112455
-2.8463221 4.5949953 21.84107
-2.8262585 4.9441617 21.545485
-2.8622761 5.3551108 21.102683
-2.9175939 5.796016 20.60144
-2.9769842 6.2542513 20.042125
-3.0332671 6.7374281 19.396295
-3.0825593 7.2271264 18.720536
-3.1192362 7.7113499 18.036098
-3.1512856 8.1910507 17.358408
-3.1784416 8.6086158 16.753497
-3.1995943 9.0074584 16.154769
-3.219284 9.3922703 15.48867
-3.2262469 9.7722414 14.814755
-3.2495758 10.131975 14.145014
-3.2785222 10.497003 13.423712
-3.2912053 10.879376 12.676056
-3.3018504 11.244743 11.936351
-3.3035352 11.609944 11.112306
-3.2970285 11.988047 10.166486
-3.2875991 12.316733 9.2264223
-3.2772641 12.604939 8.3011571
-3.2698757 12.850522 7.367488
-3.2556316 13.088356 6.4590214
-3.2480293 13.321025 5.5652076
-3.2473824 13.529993 4.7499069
-3.2523984 13.726766 3.9647273
-3.261035 13.920633 3.1873499
-2.4427637 3.6417562 22.875402
-2.4454431 3.9822554 22.621116
-2.4451298 4.3103167 22.369988
-2.4406978 4.6626639 22.077313
-2.4871306 5.0503675 21.656031
-2.5301135 5.4777621 21.181006
-2.5816726 5.9245038 20.660669
-2.6324276 6.4008045 20.071886
-2.6795221 6.9052047 19.400902
-2.7189018 7.4081568 18.70616
-2.7529726 7.9158423 17.992579
-2.7862287 8.3394733 17.381262
-2.810987 8.7639896 16.76466
-2.8331221 9.1835714 16.144848
-2.8502965 9.584899 15.485994
-2.8715325 9.9587315 14.820201
-2.8792626 10.303684 14.178466
-2.9058734 10.657842 13.476425
-2.9357772 11.02613 12.731938
-2.9531664 11.38622 11.990341
-2.9706627 11.749987 11.223183
-2.9691265 12.135099 10.276946
-2.9655072 12.484798 9.3513182
-2.9583163 12.801962 8.4297861
-2.9472831 13.055027 7.4974985
-2.9435579 13.299679 6.5758
-2.9364359 13.531829 5.682748
-2.9381175 13.749396 4.8268575
-2.9375934 13.951155 4.0308243
-2.9481497 14.142944 3.2564974
-2.0336071 3.664063 23.120969
-2.038218 4.0078102 22.85368
-2.0701155 4.3738966 22.525756
-2.1100023 4.7502319 22.142303
-2.1482294 5.1517441 21.715883
-2.1932437 5.59887 21.217517
-2.2340271 6.0709228 20.678481
-2.273719 6.5756247 20.030231
-2.3244338 7.0771182 19.367048
-2.3634652 7.59631 18.662127
-2.3902913 8.0617207 18.002557
-2.4105343 8.4953257 17.378944
-2.4340285 8.9313528 16.747473
-2.4498357 9.3647011 16.098213
-2.4626311 9.7558071 15.46891
-2.489564 10.119479 14.837485
-2.5183523 10.459371 14.198305
-2.5440647 10.801198 13.534711
-2.567367 11.160768 12.797711
-2.5890629 11.520622 12.055215
-2.6100448 11.880111 11.309279
-2.6159779 12.267001 10.394889
-2.6159895 12.633501 9.466914
-2.6121397 12.963228 8.5500612
-2.6148802 13.252959 7.6105
-2.6126156 13.49704 6.6931716
-2.6187627 13.731011 5.8205757
-2.6184026 13.957866 4.9423673
-2.6250127 14.176169 4.1066025
-2.6348277 14.367749 3.3290488
-1.6314769 3.650228 23.301604
-1.6869334 4.0441105 22.938193
-1.7378931 4.4344236 22.575078
-1.7852977 4.8306204 22.17781
-1.8209454 5.2600754 21.712636
-1.8541337 5.7378191 21.173115
-1.8888249 6.2283441 20.602527
-1.9273499 6.7276111 19.963909
-1.9741909 7.2477052 19.282002
-2.0100056 7.7774557 18.57796
-2.0302912 8.2076033 17.972561
-2.0408833 8.6497569 17.346478
-2.0500243 9.0813451 16.701853
-2.0758063 9.4868368 16.083989
-2.0987528 9.8754258 15.471272
-2.1166174 10.251061 14.863206
-2.1406591 10.600292 14.224999
-2.1651343 10.940298 13.553036
-2.1924237 11.299315 12.829993
-2.2113796 11.655057 12.118922
-2.2366956 12.014154 11.371873
-2.2545311 12.399793 10.516671
-2.2563725 12.772909 9.5756047
-2.2520908 13.118777 8.6731173
-2.2555708 13.44411 7.7416687
-2.2596187 13.691979 6.8224691
-2.2757207 13.922254 5.9466199
-2.28842 14.154189 5.0612648
-2.2936864 14.380012 4.2022435
-2.3079229 14.586019 3.4038168
-1.3022577 3.685575 23.347807
-1.3518823 4.083478 22.980145
-1.3988453 4.4881477 22.608299
-1.4291556 4.9220228 22.183578
-1.4728682 5.3858505 21.676543
-1.5122695 5.8868259 21.113618
-1.5460832 6.3909389 20.500419
-1.5886752 6.89187 19.859675
-1.6158552 7.4375374 19.138524
-1.6531013 7.9088631 18.505282
-1.6666817 8.3342601 17.923373
-1.6763506 8.7717245 17.292649
-1.6977068 9.1836488 16.679436
-1.7219262 9.5848919 16.080465
-1.7451539 9.9829102 15.471209
-1.7576145 10.36275 14.851226
-1.7613509 10.719482 14.234966
-1.7796089 11.070642 13.578797
-1.8077621 11.435753 12.854666
-1.8384491 11.795279 12.128798
-1.8598608 12.152472 11.413246
-1.8753184 12.532093 10.620387
-1.882441 12.911628 9.6955933
-1.8864704 13.26367 8.786927
-1.8796993 13.601614 7.8756769
-1.8919231 13.891194 6.9716783
-1.9064335 14.121677 6.0902251
-1.919351 14.352364 5.2031686
-1.9278544 14.581762 4.3302181
-1.9352588 14.804261 3.4725447
-0.96783059 3.7254193 23.389696
-1.0065962 4.1394974 23.007479
-1.0402723 4.5666649 22.601214
-1.0726614 4.99987 22.173601
-1.1166823 5.5102884 21.632137
-1.1614099 6.0249642 21.050289
-1.20687 6.5461767 20.400921
-1.2459131 7.0681361 19.714188
-1.2520157 7.5883298 19.028779
-1.2751923 8.0329186 18.43016
-1.2932449 8.4658616 17.830334
-1.3189209 8.8655287 17.250386
-1.3424021 9.2731317 16.644804
-1.3681175 9.6757895 16.046003
-1.3861886 10.074458 15.43527
-1.3928913 10.458381 14.818492
-1.3922882 10.826572 14.20904
-1.4010037 11.185816 13.583284
-1.4303544 11.557422 12.876841
-1.4554032 11.926936 12.14989
-1.4754638 12.291768 11.428002
-1.4905625 12.670262 10.664916
-1.4956871 13.059926 9.803207
-1.491308 13.41399 8.9169587
-1.4812957 13.763784 8.0174641
-1.485877 14.079334 7.1538874
-1.501165 14.331724 6.2529432
-1.52094 14.563079 5.3597601
-1.5176204 14.802237 4.4618766
-1.5145993 15.030961 3.5773899
-0.60976876 3.7936202 23.399664
-0.64371067 4.2196162 23.006648
-0.68147103 4.6433754 22.592215
-0.71177363 5.1054436 22.126441
-0.7635446 5.613921 21.574853
-0.81627172 6.1385831 20.981886
-0.853585 6.6772039 20.286866
-0.86029568 7.2323827 19.582761
-0.86261745 7.7225433 18.947496
-0.87515143 8.1703058 18.348477
-0.90642928 8.5778152 17.77219
-0.9363554 8.968839 17.207506
-0.96094417 9.3669023 16.61184
-0.97860455 9.7679113 16.004299
-0.99792567 10.169399 15.395651
-0.99988485 10.556052 14.783178
-1.0013143 10.928111 14.172541
-1.0013476 11.303704 13.563784
-1.0079578 11.681405 12.917345
-1.0319151 12.063745 12.195548
-1.0510037 12.44286 11.465514
-1.0592931 12.821608 10.727306
-1.0618985 13.221074 9.8759397
-1.0506374 13.578164 9.019914
-1.0484759 13.927552 8.1492879
-1.0402852 14.247572 7.330001
-1.041307 14.539164 6.4378332
-1.0425484 14.800688 5.5022742
-1.04373 15.045086 4.5986171
-1.0329437 15.278166 3.6935965
-0.23708552 3.8624751 23.395341
-0.28486103 4.2844976 22.998556
-0.33104799 4.7124091 22.580549
-0.37186523 5.1853123 22.087217
-0.41622219 5.7001963 21.520901
-0.43309047 6.2548812 20.880504
-0.4308692 6.8410237 20.162551
-0.43172052 7.3983722 19.45948
-0.44729901 7.8547227 18.860135
-0.4824197 8.2772857 18.28294
-0.51406725 8.6816147 17.709959
-0.5420863 9.0757132 17.13594
-0.56719647 9.4643649 16.573297
-0.58095052 9.8688436 15.966366
-0.59096135 10.275856 15.358765
-0.58784897 10.669262 14.740793
-0.57070997 11.045489 14.135209
-0.55787724 11.421479 13.528724
-0.5446344 11.80196 12.913077
-0.55327404 12.189976 12.228388
-0.57075531 12.58264 11.503025
-0.58081855 12.970133 10.77254
-0.57935981 13.367356 9.934666
-0.57319765 13.737382 9.0907242
-0.56719924 14.086627 8.2387077
-0.55369492 14.419222 7.4248095
-0.53310748 14.754424 6.5727011
-0.53510026 15.035862 5.6302193
-0.52975922 15.290859 4.7233694
-0.52177263 15.530011 3.8078231
0.14396481 3.8759212 23.393288
0.077790423 4.3194916 22.98862
0.043271615 4.7753236 22.555913
0.0079135086 5.280171 22.031485
0.0051011528 5.8351499 21.435442
0.01038515 6.4198356 20.733758
0.029679435 7.0029348 20.014509
0.03179988 7.5185035 19.361724
0.00058584322 7.9445368 18.785139
-0.032913907 8.3713826 18.214666
-0.063684242 8.786772 17.648252
-0.09014709 9.1919089 17.074006
-0.10751087 9.5881848 16.50587
-0.11879513 9.9804227 15.931621
-0.12234688 10.392149 15.317502
-0.11377661 10.787922 14.700393
-0.10060285 11.166937 14.09039
-0.084477668 11.541813 13.485906
-0.070727621 11.922968 12.869709
-0.063566766 12.307356 12.23486
-0.074596035 12.703149 11.524848
-0.084078678 13.109211 10.779672
-0.082505844 13.515488 9.9597157
-0.073682737 13.891984 9.1522378
-0.071185811 14.245594 8.3055974
-0.06045563 14.595282 7.4532938
-0.035680937 14.936788 6.631533
-0.019576106 15.259554 5.7377651
-0.00365412 15.530551 4.8233228
0.010354933 15.786332 3.9186974
0.5858568 3.8748194 23.390624
0.53480888 4.336528 22.978037
0.51954706 4.8255852 22.51477
0.51035333 5.3942626 21.943466
0.5156737 5.9811714 21.304097
0.53428441 6.5739888 20.565884
0.57103991 7.1548436 19.839227
0.53752134 7.5975957 19.280173
0.50052935 8.0333024 18.724156
0.46494923 8.4632057 18.155218
0.43242632 8.8835249 17.592889
0.39799567 9.2989981 17.015424
0.37677213 9.705254 16.440339
0.35962635 10.102778 15.873906
0.35283919 10.507211 15.273951
0.35852618 10.906436 14.658036
0.37400539 11.283144 14.051345
0.38675643 11.658667 13.444222
0.40583982 12.045845 12.820062
0.4251455 12.427703 12.200987
0.43182968 12.83445 11.51301
0.4262068 13.241528 10.772004
0.42409007 13.652841 9.9762016
0.41990283 14.034699 9.1619627
0.43096817 14.39964 8.3392937
0.44897546 14.757646 7.4930299
0.47379947 15.11475 6.6525732
0.50331765 15.472005 5.7946671
0.52512643 15.761001 4.8777267
0.5439838 16.024557 3.9872286
1.1222743 3.8994108 23.349863
1.1014201 4.3614363 22.953212
1.1004723 4.9039001 22.418732
1.1073029 5.4901692 21.809946
1.1310555 6.0934834 21.134117
1.1398841 6.7026393 20.405437
1.1083371 7.2163452 19.768648
1.0489723 7.6590617 19.213288
1.0042642 8.0992484 18.654805
0.9678272 8.5427603 18.09371
0.93594592 8.9678183 17.530204
0.90629238 9.3856809 16.960397
0.87173934 9.8015273 16.375799
0.84464473 10.207496 15.805629
0.82866383 10.608303 15.233091
0.83157424 11.018175 14.615835
0.85351222 11.399595 14.002624
0.87336553 11.781287 13.389497
0.89471951 12.168141 12.764446
0.91603404 12.550404 12.146947
[...]
POINT_DATA 900
VECTORS normals float
-0.48499393 0.47830671 0.73212265
-0.4584127 0.53089916 0.7127439
-0.44351226 0.55931122 0.70033409
-0.41183741 0.60293463 0.68327138
-0.38923551 0.63793395 0.66448175
-0.36652709 0.67029005 0.64526672
-0.35799187 0.69760893 0.62063162
-0.32828529 0.72944168 0.60011966
-0.32145891 0.74458877 0.58502285
-0.32348899 0.75013978 0.57675401
-0.31988251 0.75634613 0.57062746
-0.31904019 0.76726846 0.55633845
-0.32189661 0.78154867 0.53438212
-0.34755895 0.79128981 0.50305388
-0.35664505 0.802703 0.47798767
-0.37322744 0.81088171 0.4507462
-0.37882924 0.81942234 0.43015745
-0.39484713 0.82212942 0.41012067
-0.41507264 0.8194318 0.39527993
-0.43478309 0.81820878 0.37616227
-0.4621469 0.81835835 0.34162824
-0.47848791 0.82068606 0.31228786
-0.51241585 0.81157372 0.28067434
-0.53053799 0.80745193 0.25797447
-0.55054891 0.80176059 0.23254215
-0.55902746 0.80182179 0.21111636
-0.57065537 0.79592936 0.20211114
-0.57686888 0.79490927 0.18799347
-0.5818749 0.79417943 0.17521596
-0.5871005 0.79548791 0.15003995
-0.4281512 0.50224997 0.75128658
-0.41094821 0.5500681 0.72701214
-0.3780102 0.59484765 0.70941142
-0.36604185 0.62628368 0.68831832
-0.34184183 0.66172672 0.66727948
-0.32305241 0.69134835 0.64627749
-0.29985151 0.72566518 0.61927305
-0.29197209 0.74515873 0.59957549
-0.28338745 0.75691673 0.58887063
-0.28077745 0.76489575 0.57974004
-0.27898565 0.77138768 0.57195109
-0.28455361 0.77903035 0.55869576
-0.28655253 0.78779726 0.54521842
-0.31050694 0.79923361 0.51459797
-0.32369755 0.81138495 0.48669739
-0.33924507 0.81980761 0.46133314
-0.35995413 0.82413664 0.43730062
-0.37444253 0.82659067 0.42016742
-0.39217261 0.82538993 0.40611835
-0.4012713 0.82740757 0.39290974
-0.43155446 0.82663958 0.36114783
-0.45904908 0.82604844 0.32698305
-0.48467907 0.82115664 0.30131043
-0.51123004 0.81512875 0.27241322
-0.53728999 0.80845462 0.24025112
-0.55303801 0.8044167 0.21693944
-0.56220189 0.80085661 0.20629526
-0.56818691 0.79947585 0.194941
-0.57512895 0.79834253 0.17853824
-0.57952573 0.80006097 0.15508826
-0.36457608 0.53306709 0.76349444
-0.35297423 0.57904009 0.73492977
-0.3370439 0.61630621 0.71173595
-0.32249001 0.64306489 0.69459898
-0.29736066 0.67873579 0.67148668
-0.27409365 0.71707503 0.64084013
-0.25939369 0.74141795 0.61888152
-0.25193952 0.75880624 0.60061599
-0.25642989 0.76318485 0.59312106
-0.25227919 0.77138942 0.58422048
-0.24953237 0.77566269 0.57972492
-0.25210551 0.78574943 0.56483683
-0.26008477 0.79512641 0.54784113
-0.27612866 0.80830903 0.51998989
-0.29466916 0.81835897 0.49341533
-0.3105926 0.8269565 0.4686952
-0.33009374 0.83021917 0.4491929
-0.34362317 0.83298057 0.43366634
-0.36237629 0.83282926 0.41842423
-0.37938215 0.83226095 0.40424114
-0.39307283 0.83652564 0.38173106
-0.42534887 0.83601979 0.34662551
-0.46157561 0.82915224 0.31536411
-0.48923769 0.82423365 0.28510588
-0.51993683 0.81517404 0.25525866
-0.5409372 0.809417 0.22854118
-0.55410905 0.80492052 0.21228782
-0.56156145 0.80319528 0.19881165
-0.56396292 0.80519434 0.18332457
-0.57011029 0.80640441 0.15711837
-0.31811974 0.54505657 0.77570173
-0.29588855 0.59650547 0.7460772
-0.28196325 0.63588041 0.71843777
-0.26378165 0.67090213 0.69304371
-0.25428662 0.70303015 0.66414375
-0.23998341 0.73212176 0.63749956
-0.22428675 0.75413723 0.61722969
-0.21872713 0.7668772 0.60337203
-0.22279452 0.77305282 0.59392924
-0.225155 0.77987362 0.58403969
-0.22322876 0.78504701 0.57781495
-0.21542537 0.79416935 0.56823142
-0.21700852 0.80561778 0.55125974
-0.23501524 0.81432597 0.53069864
-0.25177879 0.8247235 0.50639766
-0.26705224 0.83610299 0.47918148
-0.28866279 0.83943868 0.46045249
-0.31553253 0.84045397 0.44054098
-0.32959878 0.8413034 0.42845447
-0.34851913 0.84042049 0.4150034
-0.376137 0.83861003 0.39402306
-0.39994972 0.84216632 0.36165744
-0.43371261 0.83798044 0.33118297
-0.46963544 0.82976125 0.30156066
-0.49310434 0.82526318 0.27529764
-0.52227796 0.81611728 0.24734252
-0.54068542 0.81032195 0.22591505
-0.55135928 0.80928248 0.20264455
-0.554661 0.81132748 0.18465888
-0.5544394 0.81647689 0.16112861
-0.25742882 0.56613194 0.78308686
-0.23732899 0.6193252 0.7484058
-0.2269493 0.66183854 0.71446747
-0.21862126 0.69405474 0.68592474
-0.20882941 0.72096596 0.6607559
-0.19753853 0.74734834 0.63438867
-0.19820169 0.76459463 0.61327901
-0.19402284 0.77290183 0.60413401
-0.19862916 0.77780861 0.59628871
-0.19853814 0.78539255 0.58629442
-0.19943965 0.79392768 0.57437154
-0.19035227 0.79753476 0.57245464
-0.18929695 0.81006047 0.55494928
-0.19687672 0.81813578 0.54027161
-0.21014555 0.83193897 0.51353325
-0.23055453 0.84094081 0.48955405
-0.25193302 0.84442959 0.47272447
-0.2745495 0.8435704 0.46153174
-0.28987301 0.84578087 0.44791558
-0.31811444 0.84384904 0.4321134
-0.34710612 0.84401694 0.40884317
-0.37574984 0.84544686 0.37951504
-0.40602386 0.84456199 0.34908406
-0.43044291 0.84206042 0.32504332
-0.45867143 0.83678353 0.29902148
-0.49400728 0.82765292 0.26635963
-0.51761256 0.82336549 0.23269402
-0.52507259 0.82406454 0.2126415
-0.53051031 0.82565699 0.19196184
-0.53460104 0.82782536 0.17002027
-0.20327155 0.59067617 0.78088561
-0.19525921 0.63529149 0.7471804
-0.18669083 0.67628364 0.71259173
-0.18170001 0.70611327 0.68438962
-0.17727983 0.73243216 0.65735454
-0.17604673 0.75730104 0.62889005
-0.17518456 0.77205883 0.61093005
-0.17622024 0.77803522 0.60299886
-0.17672339 0.78243018 0.59713638
-0.17646172 0.78990411 0.58729273
-0.1761069 0.80108139 0.57206202
-0.16873652 0.80657206 0.5665417
-0.16871362 0.81180183 0.55902907
-0.17476469 0.82223562 0.54165107
-0.18523584 0.83077191 0.52488639
-0.19832609 0.84170796 0.50218968
-0.21938169 0.84526201 0.48724101
-0.24200181 0.84745506 0.47249873
-0.26799739 0.84630459 0.46037586
-0.29415616 0.84560533 0.44544784
-0.31251388 0.84855367 0.42695636
-0.34482842 0.85220408 0.39349914
-0.37242348 0.852447 0.36692623
-0.40232757 0.84859957 0.34352772
-0.42611891 0.8471068 0.31754173
-0.452267 0.84422598 0.28764049
-0.48033671 0.83933135 0.25455751
-0.49889242 0.83696294 0.22494308
-0.50462088 0.83905458 0.20333513
-0.50410841 0.84572046 0.17501888
-0.1543956 0.61039711 0.77690242
-0.15758643 0.65605291 0.73807933
-0.14791749 0.68110393 0.71708985
-0.15209821 0.71505396 0.68232248
-0.15720626 0.74383533 0.64961157
-0.1528063 0.76283183 0.62828165
-0.155862 0.7740133 0.61368595
-0.16064129 0.78132343 0.60309873
-0.15358407 0.7896869 0.5939752
-0.14889529 0.79569178 0.58711565
-0.15366799 0.8042301 0.57410808
-0.14881709 0.81150744 0.56507446
-0.14804356 0.82098471 0.55142289
-0.14927657 0.82298034 0.5481057
-0.16322517 0.83242542 0.52955214
-0.18080795 0.84027823 0.51111739
-0.19089777 0.84414447 0.5009772
-0.21712131 0.84530254 0.48818229
-0.24281621 0.84556787 0.47545269
-0.26754126 0.84894261 0.45576104
-0.28940131 0.85046033 0.4392768
-0.31600887 0.85516984 0.41088068
-0.33657062 0.85918294 0.38538927
-0.36433089 0.85894931 0.35981813
-0.38854732 0.85580638 0.34150611
-0.40702254 0.8581466 0.31291702
-0.43741404 0.8552088 0.27800516
-0.45900629 0.85463405 0.24272179
-0.47304842 0.85515641 0.21197338
-0.48032377 0.85819165 0.18109712
-0.089729372 0.61483315 0.78353611
-0.09865099 0.66053616 0.74428487
-0.12026376 0.68859371 0.71510512
-0.12961532 0.72234364 0.67927869
-0.13647845 0.745641 0.65222169
-0.13953551 0.76751907 0.62565511
-0.13161945 0.7801696 0.61156498
-0.12868006 0.78727716 0.60302248
-0.12621878 0.79555849 0.59258375
-0.11934288 0.80322829 0.58359369
-0.12788109 0.80701577 0.5765171
-0.12881095 0.814144 0.56619545
-0.13423675 0.82257712 0.55258246
-0.13949495 0.82564352 0.54667534
-0.1503484 0.82817946 0.53992049
-0.16616929 0.83553957 0.52369972
-0.17948013 0.84090881 0.510548
-0.19093178 0.84441029 0.50051605
-0.2152249 0.84484668 0.48980847
-0.23460932 0.84954349 0.47247681
-0.25634566 0.85472001 0.45137634
-0.27840956 0.85982303 0.4280099
-0.30829115 0.86228765 0.40176683
-0.32547542 0.86592541 0.37978801
-0.34375335 0.86649073 0.36197714
-0.36677331 0.86603563 0.3397935
-0.39808751 0.86587826 0.30295409
-0.42853143 0.86425347 0.26348958
-0.44576428 0.8654528 0.22866058
-0.45168989 0.87058432 0.19508761
-0.012806514 0.61736896 0.78656949
-0.030724142 0.6580853 0.75231626
-0.056773639 0.69663551 0.7151753
-0.080421967 0.72722868 0.68166762
-0.085296492 0.75352827 0.65185862
-0.08849742 0.77501495 0.62571562
-0.089083461 0.7864505 0.61119535
-0.081014728 0.79021696 0.60744858
-0.085179661 0.79865942 0.5957244
-0.09067057 0.80327841 0.58866174
-0.099469567 0.80983383 0.57816518
-0.10445913 0.81464825 0.57047044
-0.12178239 0.8195656 0.55989399
-0.12991339 0.82467506 0.55048483
-0.14565712 0.82699325 0.54301581
-0.16057724 0.83364569 0.52844093
-0.1762767 0.83691655 0.51816717
-0.18244916 0.84065685 0.50991016
-0.19573969 0.84572382 0.49642441
-0.20858336 0.84997942 0.48376438
-0.22220489 0.85612961 0.46654805
-0.24285578 0.86245792 0.44405788
-0.26925814 0.86555415 0.42227487
-0.29275185 0.86979346 0.3971847
-0.31627107 0.87022155 0.37773941
-0.33120179 0.87311023 0.35774837
-0.35429462 0.87633105 0.32637281
-0.38450559 0.87679925 0.2887534
-0.41521875 0.87492674 0.24919189
-0.42849625 0.87877765 0.21009714
0.057769666 0.61122202 0.78934803
0.03684425 0.65487274 0.75484051
0.013693838 0.68931998 0.72432758
0.003563097 0.72948614 0.68398632
-0.012039913 0.76012348 0.6496671
-0.015647469 0.78046127 0.62500829
-0.022202114 0.78943123 0.61343736
-0.033834365 0.79294332 0.60835526
-0.039613471 0.79850232 0.60068695
-0.050707645 0.80219625 0.59490328
-0.068740957 0.80787192 0.5853355
-0.083871373 0.81539521 0.57279687
-0.10225425 0.81687884 0.56767335
-0.10849178 0.82050386 0.56125123
-0.12829419 0.82522197 0.55004482
-0.1404651 0.83067932 0.53874059
-0.15668597 0.83662711 0.52488531
-0.17078423 0.84044547 0.51428024
-0.17702811 0.8435861 0.5069749
-0.18270116 0.85023576 0.49367949
-0.20194312 0.85548884 0.47682053
-0.22059374 0.8602222 0.45973489
-0.24352984 0.86776823 0.4332107
-0.26264863 0.87355783 0.40977117
-0.28548272 0.87460307 0.39187893
-0.30597303 0.87735589 0.36963109
-0.32225362 0.88031718 0.34812966
-0.3528546 0.88254177 0.31082736
-0.38171647 0.88279668 0.2737929
-0.39991574 0.88643527 0.23302341
0.14251277 0.59476871 0.79116388
0.12590231 0.63940893 0.75848852
0.10387965 0.68705248 0.71914387
0.08232199 0.72926917 0.67925663
0.066766004 0.75866607 0.64804945
0.048102587 0.77309486 0.63246382
0.030860003 0.78755531 0.61547079
0.013935823 0.78808311 0.61541109
0.004486498 0.79524479 0.60627188
-0.0073443098 0.79872544 0.60165085
-0.032629823 0.80216757 0.59620675
-0.050784987 0.81155346 0.5820669
-0.067062723 0.81525677 0.57520343
-0.088269551 0.8191395 0.56676183
-0.099688714 0.82445448 0.55707896
-0.10777356 0.8282531 0.54989241
-0.12021991 0.83843026 0.53158431
-0.13590177 0.84169516 0.52257054
-0.14938795 0.84694709 0.51025863
-0.16479121 0.84993303 0.5004575
-0.17534848 0.85616519 0.48603918
-0.19633662 0.86074022 0.46965753
-0.22277427 0.86648695 0.44673481
-0.23290429 0.87481584 0.42479742
-0.25633256 0.87923718 0.40154153
-0.27290236 0.88137979 0.38560857
-0.29371606 0.88558925 0.35980905
-0.31208828 0.89120029 0.32918527
-0.33747954 0.89436741 0.29362304
-0.36632035 0.89687873 0.24782645
0.21827901 0.58376797 0.78202892
0.20150123 0.62337768 0.75551143
0.18033272 0.67386729 0.71650749
0.1544568 0.71756041 0.679154
0.12861027 0.74612078 0.65327114
0.10987834 0.7644031 0.63530674
0.082327991 0.77495664 0.62662933
0.05728578 0.78263248 0.61984252
0.042269348 0.78647673 0.61617177
0.019492627 0.79253048 0.60952069
-0.0013583932 0.79819251 0.60240092
-0.025804876 0.80749747 0.58930632
-0.039617764 0.81174697 0.58266395
-0.054462664 0.8164267 0.574875
-0.066953651 0.8215804 0.56614739
-0.080559896 0.82770297 0.55535385
-0.084080609 0.83465456 0.54431812
-0.096502905 0.8407982 0.53267775
-0.11095673 0.84586006 0.52173688
-0.12243601 0.85009917 0.51219218
-0.13856616 0.85735883 0.49571691
-0.15587314 0.86431392 0.47818931
-0.1814306 0.87010791 0.45825229
-0.20032801 0.87743641 0.43586012
-0.21956367 0.8851017 0.41034958
-0.23380701 0.88917562 0.39332048
-0.25097594 0.89256045 0.37462904
-0.26988643 0.89725894 0.34941051
-0.28799557 0.90321177 0.31822484
-0.32118283 0.90695399 0.27253633
0.27493197 0.56872889 0.77521601
0.25970876 0.61488986 0.74462193
0.24411147 0.65724933 0.71304481
0.21627147 0.69723336 0.68344151
0.17481355 0.73109658 0.65949831
0.14970801 0.74944883 0.64491392
0.1138027 0.7640725 0.63501352
0.09300997 0.7715009 0.62939297
0.07029594 0.77708079 0.62546296
0.053571312 0.78398221 0.61846747
0.033883156 0.79233869 0.60913984
0.0079166241 0.80435121 0.59410138
-0.0056024564 0.80995434 0.58646619
-0.018206763 0.81382597 0.58082339
-0.03396851 0.82011314 0.57119224
-0.038276492 0.82864656 0.55846198
-0.048506281 0.83421273 0.54930525
-0.060513064 0.83958874 0.53984156
-0.076159494 0.84507976 0.52918799
-0.092136866 0.84959372 0.51932775
-0.1068846 0.85551706 0.50662239
-0.1256419 0.86319235 0.4889919
-0.13286528 0.87162176 0.4718287
-0.15484262 0.88116273 0.4467393
-0.17665198 0.88892125 0.42262642
-0.19367179 0.89440987 0.40314044
-0.20661518 0.89794765 0.38858744
-0.22649296 0.90260301 0.36607205
-0.25510354 0.90821842 0.33175516
-0.27731276 0.91505951 0.29285444
0.3356656 0.5548367 0.76123902
0.31912549 0.59554898 0.73721119
0.30362236 0.62926083 0.71543292
0.26500021 0.67259987 0.69093002
0.2237718 0.70932438 0.66841986
0.18454058 0.73274864 0.6549994
0.15173261 0.74841772 0.64563777
0.12712171 0.75600015 0.64210891
0.10386871 0.76826687 0.63164651
0.079821332 0.77730578 0.62403868
0.065395705 0.78692887 0.61356854
0.050983097 0.79718865 0.60157375
0.034936295 0.803991 0.59361429
0.023356386 0.81024328 0.58562813
0.0080886837 0.81720902 0.57628464
-0.0037637259 0.8250726 0.5650142
-0.014568623 0.83144866 0.55541055
-0.027972926 0.83829481 0.54449915
-0.039117659 0.84259629 0.53712316
-0.056195174 0.84691845 0.52874496
-0.072195528 0.85334513 0.51632344
-0.08934513 0.8628406 0.49751739
-0.10357829 0.87057894 0.48100296
-0.11874974 0.88083719 0.45828413
-0.13657673 0.89001314 0.43499816
-0.15233923 0.89728412 0.41433556
-0.1716392 0.90044975 0.39966266
-0.19220156 0.90347688 0.38312933
-0.21571425 0.90850168 0.35789951
-0.23702959 0.9189294 0.31525503
0.40336388 0.53721815 0.74073898
0.38326894 0.56938139 0.72726182
0.36958986 0.60027755 0.70927442
0.33721616 0.636542 0.69361339
0.28736075 0.67920014 0.67535988
0.23184176 0.70821863 0.66684014
0.19438294 0.73198802 0.65299986
0.16555631 0.74398796 0.64735849
0.14296142 0.75460066 0.64042164
0.11922482 0.76730053 0.6301074
0.10774355 0.77693416 0.62029399
0.090674671 0.78636198 0.61107523
0.074346838 0.79697362 0.59942105
0.059354801 0.80267158 0.59346048
0.042736856 0.80924028 0.58592127
0.025252572 0.81773898 0.57503502
0.0098345133 0.8260062 0.56357523
-0.0052386846 0.83205595 0.55466698
-0.018575187 0.83859326 0.54444128
-0.033632064 0.84372984 0.53571339
-0.05049895 0.85112866 0.5225226
-0.068143324 0.85806964 0.50899212
-0.084657135 0.86781696 0.48961912
-0.10117746 0.87912991 0.4657185
-0.1171416 0.88774583 0.44517995
-0.13287108 0.89621587 0.42325215
-0.14659352 0.90034034 0.40975311
-0.16097976 0.90502238 0.3937258
-0.1765038 0.9106801 0.37350791
-0.19291039 0.92414286 0.3297659
0.4775484 0.50917632 0.71602165
0.45349459 0.53484777 0.71293795
0.44577699 0.56095289 0.69757776
0.40876141 0.59754771 0.68981943
0.36338456 0.63604835 0.6807306
0.30439306 0.67543792 0.67166099
0.2613577 0.69902323 0.66562653
0.22213246 0.72228427 0.65495237
0.19034424 0.73710514 0.64841736
0.16304692 0.75407515 0.63622824
0.14499708 0.76733691 0.62463582
0.12386861 0.77919179 0.61442389
0.10083052 0.78830513 0.60696641
0.086390698 0.79140514 0.60515664
0.072254175 0.79752573 0.59894244
0.04606303 0.80701281 0.58873468
0.024645436 0.81713244 0.57592289
0.010216531 0.82582685 0.56383122
-0.0037654669 0.83216424 0.55451646
-0.018003645 0.83907416 0.54371907
-0.033412598 0.84444656 0.53459667
-0.049826572 0.85211069 0.52098434
-0.068726383 0.86386402 0.49901467
-0.085869509 0.87572722 0.47510868
-0.10120707 0.88638419 0.45175237
-0.11303898 0.89376239 0.43406333
-0.13063805 0.89908635 0.41782464
-0.14395564 0.90381079 0.40299234
-0.15276602 0.91054851 0.38414055
-0.17093716 0.92587796 0.33694285
0.53632082 0.47866588 0.6951539
0.52683823 0.4892009 0.69507119
0.49952671 0.52034969 0.69261047
0.46954044 0.54713048 0.69295022
0.42598455 0.5887098 0.68699195
0.36873659 0.63388106 0.67987361
0.32589359 0.66546941 0.67152352
0.27880819 0.69477358 0.66298994
0.24383264 0.71686635 0.65318319
0.21180619 0.73416392 0.64509029
0.18600661 0.75242793 0.63186529
0.15750646 0.76766393 0.62119546
0.13277436 0.77238817 0.62111794
0.1168711 0.77976329 0.61506939
0.08585554 0.78745283 0.61036618
0.067409827 0.79456563 0.60342471
0.0472098 0.80645335 0.58941007
0.02758565 0.82079202 0.57056068
0.014646919 0.82785017 0.56075803
0.0001488767 0.83308323 0.55314763
-0.017435935 0.83913984 0.54363619
-0.034356599 0.8475172 0.52965482
-0.053767397 0.86098469 0.50578101
-0.070048208 0.87253858 0.48349733
-0.087732213 0.88295121 0.46119433
-0.10177849 0.89279843 0.43880759
-0.11380178 0.89818821 0.42462583
-0.12139163 0.90391917 0.41011487
-0.12862563 0.90963784 0.39498665
-0.15010837 0.9258141 0.3468944
0.57107385 0.44308032 0.69105317
0.55462041 0.45759801 0.6949822
0.53320165 0.47662902 0.69894262
0.51156348 0.4973086 0.70070462
0.48345726 0.52310492 0.70187628
0.4366164 0.56883862 0.69698547
0.37926267 0.62382207 0.68337827
0.33175545 0.65584295 0.67809169
0.2875241 0.69019738 0.66404629
0.25741279 0.70972002 0.65577141
0.22710715 0.72869342 0.64608686
0.19789061 0.74638037 0.6354177
0.1638811 0.76017254 0.62871352
0.13790767 0.76458362 0.62959777
0.11885534 0.77099951 0.6256462
0.097800499 0.78341538 0.61375516
0.074524192 0.79973074 0.59571544
0.054911955 0.81156945 0.58166975
0.037344146 0.82221953 0.56794406
0.020213082 0.82884175 0.55911786
0.0046312967 0.834347 0.55122013
-0.013401209 0.84397337 0.53621764
-0.033304994 0.8569116 0.51438631
-0.047714495 0.86773898 0.49472455
-0.073377972 0.88142998 0.46657997
-0.088629296 0.89170785 0.44384902
-0.098017194 0.89825845 0.42839747
-0.10236969 0.90402675 0.41503745
-0.10902392 0.91061719 0.39861024
-0.1237503 0.92392078 0.36201694
0.60101684 0.40228254 0.69061387
0.5759203 0.41821173 0.70243488
0.5589269 0.4313921 0.70816776
0.53568751 0.45102371 0.71387429
0.51510427 0.47176284 0.7156168
0.48129101 0.51028759 0.71271701
0.43115685 0.56678439 0.70203934
0.38002331 0.61469189 0.69118461
0.33376657 0.65620563 0.67675257
0.29108695 0.68369183 0.66920391
0.25773868 0.70211027 0.66378607
0.22130237 0.72527194 0.65192475
0.19346072 0.73853506 0.64586292
0.16285537 0.75056223 0.64041742
0.14060741 0.76081587 0.6335525
0.12190007 0.77356025 0.62188818
0.099879629 0.78910946 0.60607781
0.074722626 0.80310014 0.59114016
0.05456696 0.81548673 0.57619775
0.040041128 0.82263697 0.56715529
0.026759101 0.82859001 0.55921601
0.010811771 0.83728445 0.54666064
-0.0082581341 0.84992518 0.52683868
-0.032332724 0.86664157 0.4978825
-0.052599728 0.87894411 0.47401531
-0.067291959 0.88943341 0.45208406
-0.082658953 0.89863605 0.43083727
-0.089469443 0.90341902 0.41932004
-0.095664982 0.90933785 0.40491096
-0.11223889 0.92257693 0.36912631
0.63480515 0.34063148 0.69353632
0.60713284 0.36325418 0.70670794
0.58713485 0.3829088 0.71319949
0.56439834 0.40258375 0.72068082
0.54306871 0.42180139 0.72605783
0.5165423 0.45584098 0.72484002
0.47576573 0.50488885 0.72023206
0.42748599 0.56005706 0.70964204
0.37920409 0.60467076 0.7004124
0.3310057 0.64482056 0.68894243
0.28763455 0.67154527 0.68285673
0.24829717 0.69542171 0.67434202
0.21509927 0.71435567 0.66590411
0.18598653 0.73212229 0.65529075
0.16458739 0.74764136 0.64338433
0.14040517 0.76018621 0.63435267
0.1203874 0.77641672 0.61861454
0.094905635 0.79338046 0.60128227
0.076231014 0.8064931 0.58630855
0.060285816 0.81633217 0.5744279
0.044748519 0.82323955 0.56592775
0.030130917 0.83033151 0.55645459
0.012688278 0.8424121 0.53868438