# vtk DataFile Version 2.0
Grain example
ASCII
DATASET UNSTRUCTURED_GRID
POINTS 29700 float
7.7631133 -14.140354 3.8383762
7.587424 -14.265034 4.1410137
7.4419719 -14.375954 4.4332906
7.3234214 -14.467186 4.7368221
7.203545 -14.549061 5.0555327
7.097746 -14.60922 5.3821906
6.977069 -14.66443 5.7001862
6.8476889 -14.709186 6.0478328
6.7142623 -14.742083 6.4223608
6.5803722 -14.77085 6.8054916
6.4440481 -14.801321 7.1918715
6.307165 -14.825158 7.5822047
6.1590157 -14.842589 7.977299
6.0080096 -14.859999 8.3724534
5.8605386 -14.876497 8.7657879
5.7094836 -14.892653 9.1586179
5.5545774 -14.910816 9.5553085
5.3728278 -14.904808 9.9568311
5.1180332 -14.885159 10.384368
4.8008559 -14.82321 10.83309
4.4575065 -14.783645 11.194292
4.1129969 -14.743187 11.537621
3.7128601 -14.648991 11.896924
3.2646139 -14.534848 12.269649
2.8511608 -14.435461 12.595412
2.4482376 -14.31929 12.922149
2.0295157 -14.18749 13.269183
1.6134084 -14.053335 13.619877
1.2178426 -13.925341 13.965033
0.82326707 -13.799208 14.321732
8.4726413 -13.506538 3.9530785
8.2885925 -13.644571 4.2970468
8.1231892 -13.763218 4.6368744
7.9986378 -13.853514 4.9713825
7.8846389 -13.926191 5.3215613
7.7738494 -13.998735 5.6713824
7.6401757 -14.04792 6.0274053
7.4998458 -14.090723 6.4043153
7.3688533 -14.118221 6.7849869
7.2333988 -14.142068 7.1752895
7.0972659 -14.16685 7.5673514
6.9537432 -14.183847 7.9614748
6.8041656 -14.201267 8.3565989
6.6556538 -14.218541 8.7514101
6.5058611 -14.241025 9.1396904
6.3551689 -14.257341 9.5328031
6.20108 -14.275863 9.9301303
6.0047855 -14.277027 10.345479
5.7489063 -14.24905 10.790096
5.4201169 -14.18732 11.255889
5.0742837 -14.122266 11.683614
4.7004613 -14.048701 12.047779
4.2499307 -13.957036 12.413561
3.7504909 -13.827944 12.817225
3.2664178 -13.698854 13.195973
2.8121977 -13.566649 13.559764
2.3840417 -13.435639 13.908596
1.9505191 -13.3037 14.264019
1.5263276 -13.184938 14.611072
1.0827882 -13.076628 14.945708
9.173324 -12.862836 4.0822467
8.9867077 -13.008367 4.4402235
8.8096666 -13.116063 4.8251338
8.6611536 -13.201318 5.1998815
8.5472273 -13.275874 5.5535476
8.4236649 -13.337198 5.9317425
8.2888235 -13.390341 6.3276518
8.1540757 -13.435286 6.7245931
8.0172431 -13.467385 7.1302602
7.8751026 -13.506778 7.533407
7.7356493 -13.527409 7.9341313
7.5929136 -13.546293 8.3317275
7.4468263 -13.57225 8.7263252
7.298562 -13.589016 9.1201858
7.1473514 -13.606337 9.5151813
7.0004068 -13.614826 9.9098844
6.8422297 -13.641025 10.305355
6.6259873 -13.637519 10.728992
6.3407864 -13.607114 11.194513
6.0102737 -13.550595 11.661914
5.6112534 -13.461023 12.151633
5.1403182 -13.362339 12.586357
4.616606 -13.241923 12.990735
4.0915126 -13.117399 13.395659
3.5816218 -12.990727 13.787934
3.1070284 -12.866447 14.150903
2.658889 -12.740028 14.50084
2.1973713 -12.630183 14.841389
1.7433857 -12.536229 15.170543
1.2483892 -12.426481 15.512454
9.844846 -12.203875 4.1841218
9.652166 -12.345442 4.5837037
9.4709557 -12.464016 5.0052045
9.3098978 -12.568023 5.3989519
9.1518364 -12.643701 5.7887607
9.0184015 -12.706932 6.1870952
8.8754161 -12.749882 6.596873
8.730193 -12.801013 7.0056643
8.5760533 -12.854777 7.4196595
8.4177557 -12.890549 7.8329032
8.2636689 -12.922084 8.2381358
8.1048233 -12.952917 8.6422332
7.9455975 -12.984007 9.0386945
7.7901682 -13.013681 9.4323958
7.6346935 -13.036331 9.829308
7.4786164 -13.063257 10.217931
7.3147138 -13.089601 10.621998
7.066691 -13.084859 11.060713
6.7616803 -13.036027 11.549605
6.3739248 -12.962099 12.051715
5.8847946 -12.860216 12.578646
5.3853634 -12.727868 13.098139
4.8576864 -12.599093 13.51964
4.3293096 -12.472088 13.928204
3.8193925 -12.348909 14.318836
3.3205657 -12.225278 14.691991
2.842146 -12.128382 15.0328
2.3748533 -12.02301 15.365604
1.8821822 -11.916033 15.708514
1.3376594 -11.799012 16.050866
10.387446 -11.634412 4.277928
10.183662 -11.760332 4.7138598
9.9985259 -11.877571 5.149269
9.820944 -11.976333 5.5663657
9.659924 -12.057261 5.9822733
9.5193599 -12.116675 6.4225255
9.3708059 -12.174045 6.8430162
9.2227609 -12.226095 7.2536116
9.0638362 -12.266442 7.6753726
8.900674 -12.306894 8.0974766
8.7390502 -12.347136 8.5110097
8.5756442 -12.384553 8.9193648
8.4123969 -12.420039 9.3241289
8.2536179 -12.450286 9.7271353
8.0950094 -12.48103 10.122934
7.9388948 -12.506285 10.51658
7.7577782 -12.523384 10.936599
7.4460628 -12.483353 11.417686
7.0585485 -12.415691 11.931419
6.6275066 -12.333208 12.443554
6.1434627 -12.233557 12.974446
5.6121726 -12.089815 13.530793
5.0787344 -11.935538 14.027038
4.5508177 -11.8112 14.440533
4.0253548 -11.6991 14.827906
3.4876437 -11.601605 15.202198
3.0064437 -11.501738 15.541651
2.4963623 -11.386795 15.882581
1.9338841 -11.26157 16.222525
1.3803853 -11.135357 16.560319
10.951928 -11.023503 4.3752789
10.725958 -11.166796 4.8442406
10.523189 -11.28985 5.2910694
10.334312 -11.378657 5.7388346
10.16689 -11.446845 6.180074
10.010799 -11.505802 6.628149
9.8588783 -11.568471 7.0585951
9.7029517 -11.620106 7.493076
9.5436894 -11.671624 7.919333
9.3822771 -11.719928 8.3478244
9.2185199 -11.760003 8.769251
9.0523059 -11.801888 9.1859969
8.8842158 -11.846761 9.60023
8.7204971 -11.883889 10.008057
8.5608915 -11.909846 10.419382
8.378905 -11.933571 10.835478
8.1106487 -11.913295 11.302951
7.7234077 -11.860804 11.804208
7.3285096 -11.802876 12.311896
6.8735565 -11.703475 12.834098
6.3906208 -11.592763 13.37692
5.8492999 -11.441502 13.944041
5.2972301 -11.292146 14.482576
4.7458265 -11.169886 14.929193
4.2041879 -11.071054 15.317393
3.666149 -10.971664 15.692241
3.1197659 -10.857004 16.043103
2.5391436 -10.724917 16.391265
1.9677824 -10.605978 16.731004
1.4147864 -10.476482 17.070811
11.525636 -10.395043 4.4641016
11.288379 -10.542008 4.9402788
11.053897 -10.668134 5.4345526
10.843823 -10.765468 5.9232733
10.674385 -10.824921 6.3808685
10.501898 -10.890043 6.8328436
10.343162 -10.94291 7.2697087
10.182953 -10.996978 7.708859
10.017527 -11.055341 8.1480379
9.8568277 -11.102919 8.5832818
9.69452 -11.154179 9.009167
9.5296971 -11.207657 9.4392574
9.3631142 -11.250565 9.8660403
9.179252 -11.286519 10.296775
8.9603449 -11.302595 10.748732
8.7291333 -11.309155 11.19158
8.3918485 -11.295554 11.673886
7.9996663 -11.244592 12.178155
7.5781672 -11.168761 12.702298
7.1146882 -11.070547 13.227007
6.6122843 -10.944347 13.786457
6.0715106 -10.802084 14.349948
5.4962455 -10.67589 14.883546
4.9260951 -10.550127 15.393389
4.3676035 -10.433452 15.801876
3.7832984 -10.317 16.179188
3.1716904 -10.195085 16.549356
2.5825068 -10.065921 16.899186
2.0062737 -9.9465954 17.234318
1.4498705 -9.8234863 17.567819
12.110116 -9.7414737 4.5465605
11.860716 -9.8803816 5.048837
11.614801 -10.010308 5.5586963
11.384366 -10.120042 6.0874014
11.18285 -10.205694 6.5785097
11.000741 -10.263478 7.0415779
10.82652 -10.314671 7.4840122
10.668556 -10.367877 7.9214796
10.506035 -10.422163 8.3611137
10.336221 -10.476524 8.8092692
10.169667 -10.527385 9.2508142
9.990285 -10.573736 9.6925666
9.7737449 -10.603941 10.154413
9.5574524 -10.630598 10.617789
9.3149332 -10.656259 11.072119
9.0374636 -10.683218 11.530092
8.6744029 -10.665242 12.037686
8.2676599 -10.609704 12.55835
7.8313836 -10.529006 13.090235
7.3657368 -10.432825 13.614731
6.8193234 -10.308455 14.187257
6.2774664 -10.183232 14.741791
5.6965108 -10.062972 15.27848
5.098828 -9.9216868 15.797046
4.4889366 -9.77482 16.28334
3.8733134 -9.6559079 16.66532
3.2402415 -9.5370588 17.035845
2.6275885 -9.4158871 17.393213
2.0499296 -9.2946216 17.72784
1.48733 -9.1730657 18.065966
12.676893 -9.0107292 4.6245197
12.418998 -9.1782094 5.139508
12.171517 -9.3117255 5.6804596
11.934585 -9.4319685 6.2207766
11.705752 -9.5413667 6.7569265
11.505132 -9.6189803 7.2412074
11.316902 -9.6833545 7.6923522
11.151486 -9.7359478 8.1370711
10.9897 -9.7847825 8.5828121
10.808152 -9.8397316 9.0405993
10.589027 -9.8740025 9.5182082
10.364794 -9.910767 9.9925003
10.147228 -9.9379815 10.456958
9.8933065 -9.9708055 10.916861
9.6252117 -10.005381 11.380516
9.3348423 -10.029839 11.850553
8.9593775 -10.012968 12.376886
8.5289669 -9.9574811 12.922859
8.080595 -9.891324 13.461848
7.5666778 -9.8082692 14.00429
7.0159309 -9.6879647 14.57639
6.478981 -9.5736528 15.130691
5.8696616 -9.4281981 15.668335
5.2404752 -9.2862859 16.184821
4.6129207 -9.1431154 16.680631
3.945116 -9.0035765 17.140934
3.3112768 -8.8863612 17.50995
2.6785929 -8.7664784 17.881335
2.0942887 -8.6440519 18.221406
1.518059 -8.5201298 18.558669
13.214554 -8.2901824 4.6005638
12.961224 -8.439421 5.1627808
12.704823 -8.5796544 5.749015
12.452246 -8.7011984 6.324801
12.213203 -8.8058515 6.8931297
12.001597 -8.8923914 7.4024918
11.784312 -8.971318 7.8897991
11.596345 -9.0265306 8.3483037
11.390713 -9.0640632 8.8233659
11.172073 -9.1016272 9.3070693
10.947985 -9.1421515 9.7883356
10.722783 -9.1842468 10.268496
10.455151 -9.2348671 10.741604
10.188275 -9.2766183 11.206348
9.91195 -9.3100861 11.676363
9.603121 -9.3333965 12.165236
9.2137126 -9.3067716 12.702394
8.764499 -9.2639201 13.244048
8.2953659 -9.2311373 13.792906
7.7614502 -9.1479931 14.364326
7.2023605 -9.0416032 14.950363
6.6242313 -8.9124612 15.511091
6.0012452 -8.7758465 16.048361
5.3619652 -8.6328452 16.561152
4.6988136 -8.4885687 17.062516
4.0157522 -8.3358336 17.565385
3.3621001 -8.2058847 17.966561
2.7053799 -8.0927533 18.322638
2.0904855 -7.980445 18.650834
1.5055788 -7.8619066 18.954216
13.741564 -7.5779359 4.5680139
13.486715 -7.7174239 5.1446864
13.22247 -7.8496733 5.7326297
12.954941 -7.9794436 6.324212
12.694403 -8.0908749 6.9140081
12.458608 -8.1832062 7.4512255
12.197754 -8.2480656 7.9708364
11.936993 -8.3047274 8.4914792
11.722711 -8.3388525 8.9767711
11.50527 -8.3770383 9.4656499
11.270621 -8.4215538 9.9546985
11.002927 -8.4744974 10.440245
10.727881 -8.5259473 10.931406
10.453572 -8.5753544 11.422811
10.166891 -8.6101127 11.907775
9.838918 -8.6257576 12.407471
9.4066659 -8.610134 12.950316
8.9509529 -8.5787331 13.493139
8.469149 -8.5348094 14.046142
7.9071242 -8.4357273 14.631626
7.3125243 -8.3240006 15.225263
6.7173484 -8.2186402 15.798236
6.0926659 -8.1076655 16.333394
[...]
POINT_DATA 29700
VECTORS normals float
0.64952005 -0.76031548 0.0066387985
0.64678988 -0.76258036 0.01157772
0.64674679 -0.76228647 0.025257097
0.64554142 -0.76272754 0.039025338
0.64308823 -0.76399066 0.052495622
0.64463264 -0.76086536 0.07438185
0.64022583 -0.7627363 0.091346687
0.63942771 -0.76144333 0.10647184
0.63677349 -0.76054482 0.12685069
0.63803216 -0.75550241 0.14876517
0.6333576 -0.75660581 0.1624986
0.6255544 -0.75942841 0.17874616
0.61940975 -0.76040216 0.19524376
0.60626133 -0.76665574 0.21139104
0.59721119 -0.76908441 0.22770146
0.58335934 -0.77043073 0.25715436
0.56607341 -0.7741304 0.28334259
0.53878353 -0.78084766 0.31621075
0.50797214 -0.7784111 0.36883664
0.46605456 -0.77453221 0.42765991
0.42580824 -0.76252547 0.4870752
0.38763732 -0.75406514 0.5302104
0.3570085 -0.74736119 0.56035362
0.32357414 -0.7351131 0.59574198
0.29821194 -0.73184304 0.61276048
0.27848663 -0.725511 0.62934807
0.26043569 -0.72470455 0.63794715
0.23412085 -0.72672128 0.64580462
0.19937024 -0.7274884 0.65651515
0.17615598 -0.71844476 0.67290876
0.65469436 -0.75557424 0.021974051
0.6585948 -0.75186504 0.030852119
0.65907862 -0.75090657 0.041889221
0.65862689 -0.7500872 0.059831506
0.65893597 -0.74796218 0.079724301
0.66027332 -0.74489974 0.095726294
0.65784554 -0.74416887 0.11598251
0.65473908 -0.74322268 0.13761095
0.65377594 -0.74230129 0.14685302
0.65071809 -0.74204922 0.16102458
0.64797721 -0.74212812 0.17138083
0.64435561 -0.74136456 0.18757513
0.64201105 -0.74026083 0.19958889
0.63211395 -0.74501102 0.21305055
0.62293075 -0.74588041 0.23583828
0.60614759 -0.75118984 0.26134063
0.58791902 -0.75148735 0.29936265
0.56457194 -0.75085866 0.34273867
0.53141075 -0.74116054 0.41022392
0.49671548 -0.73116919 0.46761667
0.46193444 -0.72028295 0.51750271
0.41974855 -0.7196739 0.55306476
0.38079215 -0.713726 0.58787119
0.3414109 -0.7092722 0.6167427
0.31557177 -0.70755747 0.63227911
0.29020868 -0.7070704 0.6448491
0.27422392 -0.70692474 0.65196522
0.25036413 -0.70590127 0.66258675
0.21973674 -0.70568487 0.67359085
0.18120837 -0.70010703 0.69066177
0.67263628 -0.73859967 0.045066204
0.66863321 -0.74128164 0.05857605
0.67226911 -0.73747966 0.064637421
0.67426141 -0.7337999 0.083121969
0.67198044 -0.73303361 0.1053756
0.66978677 -0.73332916 0.11667915
0.67256682 -0.72749615 0.13565846
0.67209612 -0.72465619 0.15218479
0.6698619 -0.72446968 0.16256913
0.67268866 -0.71907539 0.17441488
0.6686947 -0.7192751 0.18838982
0.66510697 -0.72025786 0.1971328
0.66369216 -0.71731686 0.21205952
0.65319242 -0.72057491 0.23261869
0.64301239 -0.72196353 0.25554594
0.63425484 -0.7193465 0.28330446
0.61494055 -0.71847315 0.32502992
0.59546658 -0.71138719 0.3732932
0.56875073 -0.69796635 0.43516156
0.53304599 -0.69028563 0.4892522
0.4877694 -0.6802835 0.54707895
0.44866787 -0.67550523 0.58514086
0.40690403 -0.67324571 0.61738912
0.36404163 -0.6813648 0.63499268
0.33780852 -0.6816342 0.64904562
0.3153428 -0.68538075 0.65636281
0.29328505 -0.6853003 0.66659386
0.26629855 -0.68575322 0.67736814
0.23384475 -0.68303997 0.69193427
0.18443097 -0.67885581 0.71073202
0.69337379 -0.7168304 0.073395933
0.6967831 -0.71200789 0.086822089
0.69674779 -0.710294 0.10012463
0.69905642 -0.70604117 0.11325187
0.69319135 -0.70925732 0.12821782
0.69104424 -0.70908436 0.14020424
0.69082297 -0.70603479 0.15581561
0.68974067 -0.70397168 0.16935669
0.6883828 -0.70270779 0.17980788
0.6911899 -0.69812046 0.18677352
0.68828916 -0.69759589 0.19904273
0.68250587 -0.69919973 0.21285083
0.67759159 -0.69883888 0.22911536
0.66958844 -0.70039544 0.24717919
0.6626683 -0.69748255 0.27274315
0.65081734 -0.69348526 0.30905498
0.62864081 -0.69142339 0.35601185
0.60443283 -0.68104212 0.41333109
0.5788857 -0.66752176 0.46830124
0.54881464 -0.6611614 0.51153504
0.50331814 -0.65270757 0.56625408
0.46302032 -0.64312787 0.60991698
0.41876471 -0.64848557 0.63569063
0.38292206 -0.65589539 0.65051667
0.35909727 -0.65094751 0.66881723
0.33417069 -0.65479499 0.67791848
0.30880176 -0.65855281 0.68625773
0.27980436 -0.65451514 0.70236704
0.24893571 -0.65210077 0.71609748
0.19995047 -0.65438279 0.72924823
0.70873627 -0.69753938 0.10550692
0.71126901 -0.69356743 0.11428303
0.71691087 -0.68612574 0.12357295
0.72018188 -0.679999 0.13762057
0.71463716 -0.68368169 0.14789551
0.71376697 -0.68181513 0.16020254
0.71637091 -0.67716063 0.16812552
0.70775657 -0.6838011 0.1774731
0.70713121 -0.6810234 0.19019093
0.7016666 -0.68249682 0.20460223
0.69803335 -0.68318667 0.21448872
0.69426936 -0.68251672 0.22838779
0.69125301 -0.68052055 0.2430248
0.68743201 -0.67484121 0.26837767
0.67848124 -0.67360145 0.29312844
0.6625506 -0.6648519 0.34496182
0.64549035 -0.65897388 0.38612904
0.62049238 -0.64363891 0.4480158
0.59584871 -0.62826566 0.50024651
0.55867133 -0.62356056 0.54686249
0.51468297 -0.62248772 0.589585
0.47326973 -0.62248763 0.62331767
0.43706764 -0.62525499 0.6465509
0.4052801 -0.62947801 0.66295209
0.37828103 -0.62545827 0.68242613
0.34647312 -0.62997773 0.69504275
0.32580241 -0.62342009 0.71077435
0.29451996 -0.6197175 0.72746699
0.25640535 -0.6185981 0.74269286
0.21129498 -0.62030855 0.75536199
0.72000594 -0.68084139 0.13433705
0.72510089 -0.67303535 0.14578104
0.72622468 -0.67232136 0.14346321
0.72905193 -0.66726375 0.15245449
0.72859508 -0.66620937 0.15910463
0.73066192 -0.66113033 0.17041081
0.72985428 -0.65953542 0.17979363
0.727541 -0.65910777 0.19042331
0.7266543 -0.6552062 0.20658743
0.72013461 -0.65821845 0.2194416
0.71817885 -0.65650517 0.23069483
0.71471097 -0.65425052 0.2472741
0.71086402 -0.65000929 0.26862662
0.70432839 -0.64920471 0.28714938
0.69181793 -0.64340176 0.32775314
0.67466836 -0.63516946 0.37600846
0.65286356 -0.62220499 0.43200709
0.62726092 -0.60811126 0.4865639
0.59618338 -0.59574057 0.53819935
0.56480932 -0.59665059 0.57008641
0.5332499 -0.59497705 0.60137081
0.49053693 -0.59754434 0.6342825
0.45216176 -0.59966209 0.66026897
0.4204888 -0.60175307 0.67903049
0.39178305 -0.60130542 0.69637478
0.36178825 -0.59782987 0.71533818
0.33267946 -0.59333945 0.73298886
0.30448262 -0.59090359 0.74707649
0.2691532 -0.58948685 0.76161789
0.22088928 -0.58903878 0.77732956
0.73515757 -0.66000667 0.15470795
0.73346145 -0.66032163 0.16127505
0.73395752 -0.65998045 0.16041251
0.73334474 -0.65894358 0.16732855
0.73655126 -0.65394667 0.17275991
0.73777076 -0.64921332 0.1849767
0.73966703 -0.64337188 0.19739634
0.74034008 -0.63753884 0.21316845
0.73933438 -0.63422462 0.22614997
0.73708604 -0.63249153 0.23803073
0.73607543 -0.62748707 0.25387584
0.73434507 -0.62239939 0.2708437
0.73299882 -0.61289772 0.29507474
0.72026794 -0.6127171 0.3252566
0.71052167 -0.59987004 0.36785172
0.68939074 -0.58649755 0.42516001
0.65878624 -0.58709133 0.47045134
0.6332761 -0.57961347 0.51284462
0.60485283 -0.5735219 0.55247234
0.57367913 -0.57311552 0.58517592
0.54083356 -0.57161117 0.61705731
0.50224419 -0.57104026 0.64935645
0.46770401 -0.56927795 0.6761476
0.4304045 -0.57673866 0.69435184
0.39415394 -0.57688493 0.71543445
0.36429346 -0.57236089 0.7346382
0.33991778 -0.56659635 0.75061606
0.30621628 -0.57139332 0.76140742
0.27571831 -0.56737472 0.77592869
0.22009127 -0.56558331 0.79478006
0.75727202 -0.63164285 0.1660313
0.75256208 -0.63621335 0.16994969
0.75024591 -0.63798592 0.17350805
0.75089094 -0.63471338 0.18248761
0.74633854 -0.63640521 0.19485175
0.74742015 -0.63057906 0.20912476
0.75016077 -0.62282199 0.22215218
0.75166271 -0.61535451 0.23736468
0.750546 -0.61232754 0.24846668
0.75207918 -0.60340444 0.26510374
0.75328304 -0.59320251 0.28403422
0.75284709 -0.58375603 0.30405617
0.75375594 -0.56974004 0.32748781
0.74151149 -0.56413746 0.36319367
0.71677515 -0.55964328 0.41597209
0.69867447 -0.55453135 0.45204973
0.67167629 -0.5496084 0.49677114
0.64135824 -0.55079557 0.5341197
0.61788454 -0.5439982 0.5677012
0.59049813 -0.54008365 0.59968459
0.55502113 -0.53942655 0.63322235
0.52487534 -0.52961805 0.6663412
0.48881592 -0.5307895 0.69233049
0.4459477 -0.54112672 0.7129604
0.41330234 -0.54099549 0.73246505
0.37948332 -0.53697019 0.75342911
0.34889343 -0.53991345 0.76600707
0.31274428 -0.54292708 0.77937231
0.27698099 -0.54972442 0.7880892
0.21349288 -0.54389331 0.81154227
0.7785722 -0.60102437 0.18054096
0.77731922 -0.60072464 0.1868281
0.77441821 -0.60353366 0.18979873
0.77267736 -0.60200777 0.20138605
0.7675188 -0.60368764 0.21558325
0.76805568 -0.59656032 0.23282236
0.76778133 -0.58982771 0.25023008
0.76775478 -0.58059729 0.27103392
0.7705674 -0.56870408 0.28775257
0.77152804 -0.56313802 0.29600685
0.77408173 -0.54995063 0.31361087
0.77091088 -0.53842908 0.34028009
0.7672848 -0.52590368 0.3670141
0.75099164 -0.51932873 0.40781028
0.73831083 -0.51434715 0.43628445
0.71380666 -0.5123412 0.47747938
0.68680195 -0.5083829 0.5194708
0.65791619 -0.49986418 0.56327798
0.63428076 -0.49686246 0.5922969
0.6075883 -0.49122276 0.62412872
0.57447958 -0.48589828 0.6586927
0.5424744 -0.48634734 0.68497284
0.50625902 -0.48081174 0.71590633
0.47011376 -0.48396632 0.73808513
0.42752167 -0.49676885 0.75527871
0.39505204 -0.49202823 0.77578483
0.36814576 -0.4975325 0.78544899
0.33480259 -0.50658931 0.79452784
0.29731176 -0.51106112 0.8064876
0.234974 -0.52352512 0.81896805
0.79280945 -0.57855813 0.19163417
0.79188896 -0.57685252 0.20038224
0.79438678 -0.5697863 0.21045954
0.79207823 -0.56797619 0.22364062
0.79155012 -0.55760063 0.2500599
0.79327497 -0.54593021 0.26958305
0.79184702 -0.53730251 0.2903176
0.79199205 -0.52825764 0.30609224
0.79273606 -0.51966519 0.31861831
0.79374363 -0.50623469 0.33719057
0.79316153 -0.49214396 0.35873263
0.78744049 -0.48241359 0.38368555
0.78138693 -0.47454416 0.4052682
0.7661166 -0.4683992 0.44007675
0.74510357 -0.46097448 0.48199916
0.72690409 -0.46190585 0.50818642
0.70552645 -0.44825023 0.54891179
0.67667998 -0.44199372 0.58885122
0.65247005 -0.43705334 0.61908579
0.62841971 -0.43351975 0.64587095
0.59357572 -0.42646223 0.68249383
0.56079753 -0.42749675 0.70905054
0.53339932 -0.41805482 0.73533349
0.49969661 -0.42271018 0.75605516
0.45708095 -0.42947303 0.77886451
0.42632784 -0.44208303 0.78918133
0.39497453 -0.44378088 0.80439645
0.35738862 -0.46239743 0.81145671
0.3080604 -0.47701278 0.82313887
0.25171334 -0.49529621 0.83145779
0.79902594 -0.56500596 0.20573239
0.80127878 -0.5575778 0.2169316
0.80246522 -0.54776379 0.23665249
0.80625694 -0.53501109 0.25241411
0.80909043 -0.51597091 0.28133024
0.81048163 -0.50439914 0.2978272
0.80958618 -0.49230884 0.31969082
0.80991064 -0.48250979 0.3335102
0.80943038 -0.46868095 0.35378047
0.80932485 -0.45997217 0.3652655
0.80807567 -0.44944833 0.38080167
0.8008134 -0.44014478 0.40616557
0.79057372 -0.43531905 0.4306861
0.77306196 -0.42554333 0.47041268
0.75856665 -0.41491547 0.50241595
0.74199645 -0.41174452 0.52906305
0.71703219 -0.39954987 0.57116087
0.69193473 -0.38754848 0.60912438
0.66678584 -0.3770508 0.64282917
0.64431759 -0.36433445 0.67239516
0.61508872 -0.35759535 0.70270295
0.58561041 -0.35386426 0.72927398
0.55541973 -0.34953754 0.75454121
0.52644914 -0.35435885 0.77283964
0.493373 -0.35932406 0.7921296
0.45745364 -0.37898116 0.80443114
0.42497814 -0.40317797 0.81045734
0.3854206 -0.41837092 0.82244558
0.33060165 -0.44745105 0.83095734
0.27491319 -0.46749049 0.8401639
0.80374292 -0.55077737 0.22503689
0.80321286 -0.54275774 0.24548553
0.80326169 -0.53072522 0.27037271
0.80906896 -0.51250215 0.28766119
0.8123479 -0.49441826 0.30925957
0.81585477 -0.47330327 0.3322123
0.81559753 -0.46106269 0.34960245
0.81679434 -0.44723969 0.36444981
0.81676016 -0.43396559 0.38023244
0.81711758 -0.42407759 0.3904831
0.81495095 -0.41303389 0.40651932
0.80787665 -0.40389404 0.429191
0.79845082 -0.39672092 0.45286731
0.77800001 -0.3908096 0.49191853
0.76214532 -0.38149804 0.5230619
0.73966202 -0.36804102 0.56342338
0.7214464 -0.34864682 0.59829799
0.70081537 -0.34154134 0.62626459
0.67841513 -0.32370184 0.65952258
0.65370981 -0.30901911 0.69077541
0.62357321 -0.30783635 0.71860506
0.59699784 -0.30275585 0.74292158
0.56776518 -0.29975738 0.76667347
0.54040539 -0.30900741 0.78260874
0.5170793 -0.3189697 0.79428416
0.48472989 -0.32920534 0.81034608
0.44715017 -0.35896204 0.81926978
0.40529993 -0.3866007 0.82841527
0.36184573 -0.41401613 0.83525943
0.29912867 -0.43320978 0.85020664
0.80370458 -0.54151152 0.24662566
0.80506551 -0.52980359 0.26679145
0.80543004 -0.51279981 0.2971848
0.80927067 -0.50070838 0.30720044
0.81138621 -0.47761255 0.33695499
0.81314813 -0.45692468 0.36056892
0.81389713 -0.44437049 0.3743078
0.81485102 -0.43051028 0.38817357
0.81635066 -0.4181431 0.39840676
0.81614217 -0.40375824 0.41338995
0.81557372 -0.38612305 0.4309855
0.80851644 -0.3777175 0.45125453
0.80018808 -0.364507 0.4762706
0.78161094 -0.35554773 0.51251356
0.76374426 -0.34259765 0.54710288
0.74096031 -0.32577078 0.58724033
0.71927558 -0.31228769 0.6205796
0.70071615 -0.29482099 0.64967489
0.67659672 -0.27905936 0.681427
0.65669327 -0.26837289 0.70479071
0.63333854 -0.26311526 0.72777239
0.60882865 -0.25672821 0.75061195
0.58008178 -0.25942359 0.77214282
0.55939682 -0.26166948 0.78651401
0.53446491 -0.27576346 0.7989379
0.50639008 -0.28445138 0.81403716
0.47789175 -0.30869733 0.82239007
0.43784837 -0.33103646 0.83588496
0.39551438 -0.34611354 0.85074896
0.32519311 -0.37726911 0.86713175
0.81014147 -0.51868487 0.27319737
0.8113247 -0.50662181 0.29169602
0.81037314 -0.49268987 0.31709946
0.81412463 -0.47012838 0.34085245
0.8153214 -0.44854181 0.36614377
0.8154757 -0.4248308 0.39308799
0.81664599 -0.4124653 0.40368514
0.81687362 -0.39407999 0.4212107
0.81826901 -0.38203829 0.42951435
0.81956047 -0.36746732 0.43964578
0.81788404 -0.35084016 0.45604482
0.81173849 -0.33849534 0.47592177
0.8018533 -0.32555012 0.50104731
0.78377434 -0.31241026 0.53674725
0.76407585 -0.29395633 0.57426281
0.73973064 -0.27759593 0.61297559
0.72293443 -0.26746061 0.63704838
0.70156503 -0.25083999 0.66699761
0.67962721 -0.22936567 0.69677704
0.66545411 -0.21015474 0.71624424
0.63972698 -0.20402052 0.7410297
0.61650141 -0.20166423 0.76108971
0.59330772 -0.2011124 0.77944836
0.56999975 -0.20705113 0.79512899
0.54990959 -0.21091498 0.80815488
0.53190775 -0.21664372 0.81862058
0.508577 -0.22647223 0.83069836
0.48046543 -0.24667163 0.84160922
0.44169196 -0.27290095 0.8546539
0.37103321 -0.29386775 0.88089506
0.81356736 -0.49531565 0.30458258
0.81324689 -0.48073756 0.32790378
0.81451924 -0.46433452 0.34778135
0.81528819 -0.44117398 0.3750609
0.81795809 -0.41652427 0.39680233
0.81594084 -0.39839923 0.4189494
0.81610749 -0.38108442 0.43444589
0.81672672 -0.35953797 0.45132018
0.81638155 -0.33540983 0.47012915
0.81971833 -0.31867557 0.47592829
0.82391573 -0.294188 0.48437206
0.81690295 -0.28187411 0.50320628
0.80557048 -0.26432811 0.53027055
0.78479379 -0.24787812 0.56802742
0.7642507 -0.23635488 0.60004769
0.74459601 -0.21795154 0.63093098
0.72488305 -0.21158051 0.65557475
0.70257649 -0.18977734 0.68583587
0.68294647 -0.17425136 0.70938042
0.66955609 -0.16198601 0.72488287
0.65131238 -0.15132148 0.74356842
0.62890343 -0.15289704 0.76230111
0.60637746 -0.15045487 0.78081349
0.58178672 -0.15053472 0.79928938
0.56487491 -0.15435459 0.8106115
0.55204546 -0.15519857 0.81924307
0.53518107 -0.15926707 0.82958738
0.5103822 -0.17564874 0.84181799
0.47480828 -0.19038618 0.85924979
0.41404361 -0.20562526 0.88672777
0.82276113 -0.46234535 0.33060686
0.82103308 -0.44895639 0.3526228
0.82136857 -0.43193826 0.37253592
0.81779259 -0.4150793 0.39865329
0.81625607 -0.39342042 0.42302057
0.81398193 -0.36851386 0.44903336
0.81588754 -0.34417643 0.46461824
0.81535837 -0.32556198 0.4787485
0.81423623 -0.3042031 0.49444902
0.81775282 -0.27875162 0.50356515
0.81948077 -0.25277277 0.51435123
0.8152868 -0.23377452 0.52977062
0.80271568 -0.21817351 0.55502059
0.78380922 -0.19964076 0.58803628
0.76002335 -0.18042278 0.62434936
0.74236806 -0.16821963 0.64853051
0.7233405 -0.15088594 0.67380409
0.70340977 -0.13594677 0.69766265
0.6845566 -0.11908916 0.71916621
0.67048175 -0.11221583 0.73339064
0.65469989 -0.10718535 0.74825086
0.63531991 -0.10360306 0.76526794
0.61052419 -0.09939537 0.78573582
0.58747244 -0.10011545 0.80302742
0.57497278 -0.10244367 0.8117337
0.56361405 -0.097158127 0.82030452
0.54492238 -0.10097766 0.83238399
0.52462434 -0.098967797 0.84556175
0.4940142 -0.098310258 0.86387792
0.43292608 -0.11819262 0.89364731
0.82607333 -0.43859378 0.3538903
0.8255653 -0.42132007 0.37540822
0.82613708 -0.40751217 0.38914182
0.82187239 -0.38731615 0.4177463
0.82085304 -0.35646749 0.44624121
0.81718452 -0.32160375 0.47831004
0.8151331 -0.29983682 0.49563687
0.81467939 -0.27861928 0.50859492
0.81305244 -0.26545477 0.51815007
0.81332815 -0.24135452 0.52938201
0.81291965 -0.224748 0.53726156
0.80974968 -0.19676311 0.55280171
0.7974944 -0.18049759 0.57569376
0.78155501 -0.16160498 0.60254095
0.75794011 -0.14197213 0.63668729
0.73896627 -0.1301936 0.66104348
0.7204636 -0.11335209 0.68416629
0.70065897 -0.097907407 0.70674688
0.68269576 -0.079340834 0.7263825
0.67357194 -0.075551775 0.73525015
0.65902471 -0.065392628 0.74927314
0.6413593 -0.063083252 0.76464289
0.61795687 -0.060240406 0.78390076
0.59571402 -0.056059659 0.80123787
0.58141338 -0.058293335 0.81151732
0.56657428 -0.058574523 0.82192616
0.54940152 -0.047244201 0.83422176
0.53006555 -0.03670723 0.84716178
0.50607531 -0.03340672 0.86184208
0.45523691 -0.039265777 0.88950411
0.82508799 -0.41761731 0.38055957
0.82430751 -0.4031564 0.39746954
0.82570374 -0.3858075 0.41154089
0.82137105 -0.3622605 0.44058703
0.81803022 -0.32932827 0.47156066
0.81469376 -0.29671496 0.49823118
0.81333769 -0.27005762 0.5153161
0.81103685 -0.24885359 0.52942528
0.80913607 -0.22805156 0.54156375
0.80894434 -0.20767768 0.54998094
0.80794598 -0.18502689 0.55945361
0.80499531 -0.16448109 0.57002501
0.79493811 -0.14753042 0.58847955
0.77695169 -0.1317049 0.61562967
0.75503939 -0.11208383 0.64602843
0.73627217 -0.097572386 0.66961401
0.72050909 -0.078044807 0.68903967
0.69899652 -0.062158097 0.71241858
0.68187581 -0.050118298 0.72974896
0.67376816 -0.045088357 0.73756594
0.65959171 -0.036934233 0.75071609
0.64332851 -0.030262744 0.76499189
0.61875876 -0.028718313 0.78505595
0.59685675 -0.03139637 0.8017333
0.58308149 -0.031323202 0.81180961
0.56671819 -0.026238776 0.82349379
0.54412192 -0.0092854415 0.83895478
0.52583952 0.012932543 0.85048548
0.50733308 0.018062435 0.86156073
0.46612005 0.024203401 0.88439035
0.82442616 -0.39881623 0.40158079
0.82312085 -0.38682132 0.41574191
0.82301441 -0.36687989 0.4336432
0.81950164 -0.33152432 0.46744912
0.81346494 -0.30281362 0.49656693
0.80897409 -0.27470488 0.51970968
0.80525739 -0.24704953 0.53900562
0.80289802 -0.22946111 0.55018395
0.80287141 -0.2084171 0.55853363
0.80249249 -0.18830644 0.56616826
0.79986782 -0.16966841 0.57569446
0.7990214 -0.15363331 0.58134466
0.78842808 -0.13211188 0.60077252
0.76966165 -0.1087288 0.62912558
0.75015853 -0.090101024 0.65509082
0.73585694 -0.073612486 0.67312388
0.71508926 -0.052835305 0.69703356
0.69885527 -0.040805977 0.71409817
0.68310598 -0.028838596 0.72974966
0.67228544 -0.019036978 0.74004722
0.660653 -0.012508947 0.7505872
0.64279636 -0.0055663817 0.76601688
0.61968146 -0.006643717 0.7848253
0.59822077 -0.0094697064 0.80127538
0.58078253 -0.0082566171 0.81401688
0.55997819 0.0039629134 0.82849787
0.53787336 0.026236582 0.84261728
0.51647628 0.054863637 0.85454212
0.50014666 0.071115894 0.86301556
0.4592817 0.085432273 0.88417286
0.82344381 -0.38366459 0.41802126
0.82014354 -0.36802306 0.43809085
0.81956079 -0.33887901 0.46204017
0.81507102 -0.31403311 0.48687004
0.80979689 -0.27872057 0.51627883
0.80455866 -0.24921837 0.53905062
0.79996765 -0.22100998 0.55785872
0.79591528 -0.20510664 0.56960524
0.79468193 -0.18819441 0.57711653
0.79478862 -0.16705898 0.5834401
0.79408113 -0.15602159 0.58744567
0.78980491 -0.13278785 0.59881182
0.78230758 -0.11725159 0.61175724
0.76655543 -0.091424554 0.63563694
0.74859131 -0.071906756 0.65912099
0.73002824 -0.053057911 0.68135426
0.70985528 -0.0294577 0.70373128
0.69491974 -0.020550393 0.7187936
0.68394701 -0.010598248 0.7294547
0.67249473 -0.0017541894 0.74009983
0.66093488 0.0052319196 0.75042502