# vtk DataFile Version 2.0
Grain example
ASCII
DATASET UNSTRUCTURED_GRID
POINTS 32400 float
24.25283 23.190083 -4.6147088
23.925059 23.575383 -4.3353648
23.517237 23.826894 -4.2323141
23.12626 24.018288 -4.1650464
22.736917 24.170979 -4.1479963
22.343294 24.310588 -4.1423804
21.901269 24.442068 -4.1541913
21.430055 24.561082 -4.169695
20.871491 24.648315 -4.1713254
20.23031 24.722868 -4.2007643
19.529914 24.761418 -4.237753
18.684837 24.752038 -4.2478538
17.770454 24.71977 -4.1806396
16.795566 24.67578 -4.1147385
15.82758 24.626915 -4.0672842
14.873638 24.571391 -4.011867
13.927122 24.51341 -3.9658747
13.07274 24.457866 -3.9614455
12.359343 24.416485 -3.9821945
11.701477 24.40537 -3.9912378
11.055521 24.374571 -3.980485
10.428019 24.330239 -3.9478475
9.8476655 24.27456 -3.9033147
9.2732661 24.223427 -3.8617187
8.6998676 24.162177 -3.8074624
8.1498143 24.104966 -3.7648559
7.5979664 24.033359 -3.7180822
7.0611592 23.961523 -3.6693697
6.5036445 23.898166 -3.6251709
5.9653295 23.824725 -3.5778035
24.462785 22.789502 -4.3468074
24.20162 23.176678 -3.9383981
23.83067 23.466506 -3.6527455
23.423605 23.698437 -3.5321751
23.010221 23.900166 -3.4777879
22.592089 24.066534 -3.4485081
22.125781 24.201175 -3.4433926
21.647069 24.316452 -3.4460866
21.102406 24.386794 -3.438836
20.464045 24.450759 -3.4650539
19.742601 24.465836 -3.4625602
18.916896 24.459444 -3.425878
17.985069 24.421056 -3.3485928
17.001141 24.379351 -3.2676052
16.040655 24.32379 -3.2177679
15.094553 24.272422 -3.1746176
14.144322 24.217829 -3.1297631
13.243747 24.164481 -3.0883532
12.414883 24.12141 -3.0655113
11.701721 24.07701 -3.0379114
11.046964 24.018228 -2.9942311
10.447347 23.962118 -2.9377834
9.8670305 23.907378 -2.8890924
9.2643775 23.823142 -2.8234444
8.6806134 23.751999 -2.7731879
8.1336919 23.685472 -2.722769
7.580227 23.612797 -2.6744386
7.0382576 23.549543 -2.6287872
6.4859134 23.477001 -2.5843316
5.9407097 23.41161 -2.535567
24.693506 22.358046 -4.1795572
24.449029 22.778466 -3.6515306
24.079268 23.077701 -3.2879053
23.711527 23.32367 -3.0113933
23.300892 23.523453 -2.9058804
22.846066 23.711937 -2.8018396
22.362417 23.882031 -2.7617884
21.864806 24.014888 -2.7343859
21.312926 24.106277 -2.7278616
20.684372 24.166984 -2.6977385
19.94381 24.175314 -2.6655628
19.139436 24.159639 -2.6305603
18.197 24.116282 -2.5652499
17.207552 24.072212 -2.5046334
16.238872 24.026832 -2.4699627
15.289185 23.971119 -2.4324485
14.326625 23.917372 -2.3975627
13.395212 23.857451 -2.3577313
12.555929 23.78533 -2.3004046
11.730903 23.708591 -2.2265812
11.02718 23.64387 -2.1406343
10.394522 23.56197 -2.070548
9.8018384 23.475369 -1.9924863
9.2001562 23.400206 -1.9206055
8.6435331 23.327267 -1.8608447
8.093351 23.26041 -1.7988983
7.5297556 23.194251 -1.7432524
6.9914896 23.124492 -1.6791549
6.4387992 23.054763 -1.620385
5.877887 22.970644 -1.5316863
24.896188 21.910112 -4.0459496
24.679904 22.356046 -3.4359521
24.306731 22.685897 -3.0141687
23.933137 22.953617 -2.701125
23.541128 23.141168 -2.4657724
23.103953 23.307893 -2.2954815
22.613158 23.481233 -2.1882144
22.106378 23.626086 -2.140048
21.525326 23.702108 -2.1032495
20.897959 23.771769 -2.0525105
20.130776 23.802704 -2.0152129
19.313138 23.812205 -1.969343
18.382146 23.794944 -1.893026
17.399375 23.759352 -1.8359539
16.427336 23.71525 -1.7819709
15.464471 23.662021 -1.743469
14.501611 23.587032 -1.6786864
13.555138 23.502112 -1.5987625
12.692528 23.414193 -1.520723
11.889076 23.323244 -1.4406025
11.132283 23.217368 -1.3315173
10.391245 23.120467 -1.2126149
9.7288297 23.029983 -1.1261022
9.1484573 22.952735 -1.0543033
8.5858724 22.887244 -0.99963028
8.0432408 22.81247 -0.94111599
7.4785237 22.746178 -0.88159494
6.9372353 22.673813 -0.81738292
6.3529464 22.569378 -0.72854501
5.792297 22.469789 -0.64884383
25.058599 21.480235 -3.9643417
24.884179 21.919502 -3.2371197
24.544318 22.272778 -2.7730731
24.135297 22.542027 -2.4250012
23.719417 22.750468 -2.1047219
23.323056 22.908676 -1.8762859
22.834338 23.063429 -1.7640605
22.306063 23.188858 -1.6244315
21.721049 23.270776 -1.5446723
21.097096 23.334324 -1.4804051
20.333287 23.365405 -1.4401542
19.514209 23.372779 -1.3825022
18.590604 23.364094 -1.2805307
17.613361 23.350993 -1.2053569
16.644922 23.312656 -1.1234724
15.657101 23.261013 -1.0410121
14.695595 23.179011 -0.95071554
13.725327 23.070723 -0.85142194
12.851506 22.970677 -0.7526728
12.053633 22.855939 -0.64631228
11.265106 22.748518 -0.54370593
10.516127 22.643329 -0.43113866
9.7977176 22.544911 -0.31498525
9.1153806 22.453558 -0.21592534
8.5546943 22.375807 -0.16203956
8.0071918 22.295686 -0.10862153
7.4512502 22.215679 -0.052492573
6.8917678 22.127945 0.013858728
6.3250888 22.021937 0.088180376
5.7610393 21.940442 0.1383146
25.180249 21.082979 -3.9121992
25.028229 21.521235 -3.1094637
24.736841 21.877263 -2.5811828
24.32356 22.108661 -2.1879318
23.916008 22.312805 -1.8274627
23.483602 22.48322 -1.5724293
23.011452 22.626362 -1.3745564
22.493628 22.747495 -1.2214719
21.917498 22.830954 -1.0832984
21.294576 22.880037 -0.95542184
20.549127 22.913448 -0.89104702
19.722553 22.917085 -0.82058542
18.797984 22.905068 -0.71428078
17.848601 22.870609 -0.59605511
16.891496 22.812405 -0.47713345
15.908001 22.756079 -0.35454526
14.894613 22.668481 -0.24031365
13.917361 22.54441 -0.12246474
13.050546 22.435862 0.003926528
12.236307 22.329646 0.12018929
11.44935 22.217682 0.2272213
10.662308 22.10684 0.33975402
9.9603691 22.013616 0.44546055
9.262965 21.928322 0.53789277
8.5949236 21.841028 0.63000038
7.9947834 21.765059 0.69200829
7.4280002 21.676368 0.7515865
6.8735133 21.588892 0.79914719
6.311661 21.489945 0.8550189
5.7566222 21.4018 0.90171252
25.265302 20.68242 -3.8788483
25.136942 21.11543 -3.0448663
24.891895 21.475596 -2.4105254
24.481039 21.69551 -2.0220581
24.042018 21.904495 -1.6997125
23.583587 22.085476 -1.3677366
23.114884 22.221084 -1.0929339
22.65096 22.331388 -0.89336992
22.097807 22.402052 -0.73616189
21.45924 22.438729 -0.57902424
20.745632 22.449633 -0.42965301
19.926111 22.432285 -0.29435113
19.001348 22.403101 -0.15562893
18.056544 22.367194 -0.030807424
17.11408 22.297456 0.11865321
16.128937 22.206031 0.27601012
15.090315 22.084218 0.42868381
14.148037 21.958302 0.58763491
13.270916 21.843947 0.72856662
12.44538 21.742442 0.84851875
11.649435 21.636486 0.95595415
10.852153 21.52419 1.0711842
10.138358 21.438157 1.1626283
9.4529475 21.365267 1.2325063
8.7725753 21.289251 1.2994518
8.1169601 21.19544 1.3750434
7.4552899 21.08563 1.4644974
6.8787434 20.993441 1.5154798
6.315544 20.898079 1.5616418
5.7648052 20.812473 1.6027977
25.330231 20.252911 -3.8941234
25.216193 20.677662 -3.0172152
24.987657 21.035826 -2.2844127
24.603383 21.268388 -1.908634
24.148182 21.473139 -1.5526114
23.677709 21.65979 -1.1989459
23.20123 21.824871 -0.89178077
22.737237 21.943647 -0.66581985
22.216399 22.019255 -0.47107329
21.580919 22.025778 -0.27933448
20.886665 22.001577 -0.084492134
20.088992 21.953554 0.12244834
19.17862 21.905279 0.33694202
18.238494 21.852511 0.52347635
17.296106 21.755877 0.70692272
16.305991 21.624876 0.89176666
15.319187 21.496932 1.0616262
14.36377 21.378391 1.2280806
13.470095 21.265774 1.380065
12.646206 21.156776 1.5221476
11.843218 21.044082 1.6583815
11.072942 20.951431 1.7558654
10.337361 20.878774 1.806443
9.6575652 20.800784 1.8619982
8.9641819 20.714346 1.933083
8.283549 20.614018 2.0156435
7.6155124 20.511386 2.1003993
6.963788 20.403065 2.1884874
6.3223158 20.301822 2.2681013
5.7735395 20.223814 2.3047498
25.38405 19.839539 -3.9092192
25.272383 20.230685 -3.0146465
25.051009 20.562802 -2.284146
24.70527 20.826362 -1.7857987
24.245414 21.038221 -1.408088
23.779006 21.223579 -1.0588746
23.311565 21.384514 -0.75363601
22.82336 21.542039 -0.46093755
22.292398 21.578666 -0.21239796
21.688898 21.589344 0.030395403
21.017339 21.556562 0.26081708
20.204637 21.50732 0.48280154
19.303167 21.442848 0.745154
18.369264 21.329259 1.0220322
17.406512 21.202085 1.241329
16.469018 21.06644 1.4627671
15.519456 20.926601 1.6500455
14.566359 20.804203 1.8210786
13.644964 20.687806 1.9876157
12.826353 20.591976 2.1217387
12.041242 20.50181 2.2268292
11.283199 20.435412 2.3012958
10.548496 20.354271 2.3725382
9.8196542 20.260566 2.457328
9.1235058 20.161673 2.5453986
8.4375403 20.063666 2.6283788
7.7507478 19.964655 2.7100585
7.0961342 19.860726 2.79831
6.4327801 19.768099 2.8787356
5.7778296 19.677766 2.9676685
25.430478 19.426691 -3.9160129
25.30718 19.7777 -3.0409704
25.078 20.083231 -2.2830003
24.73929 20.343318 -1.737935
24.349141 20.580856 -1.299965
23.881705 20.766751 -0.94416963
23.421787 20.924259 -0.59890485
22.943565 21.055439 -0.27774479
22.368817 21.117371 0.034295651
21.765327 21.133905 0.3019936
21.111708 21.109776 0.5813562
20.326108 21.058979 0.85755161
19.383783 20.953645 1.1428956
18.431842 20.805905 1.4376108
17.509369 20.645566 1.7302345
16.607933 20.495767 1.9792277
15.693829 20.35311 2.2011988
14.764251 20.244516 2.3731752
13.840793 20.138403 2.5162798
13.024835 20.046336 2.6412972
12.251928 19.972172 2.7395347
11.484159 19.894114 2.8308983
10.734936 19.81129 2.9209092
9.9796008 19.711063 3.0185454
9.2700401 19.610938 3.1230281
8.5923153 19.5177 3.2265566
7.8927645 19.423469 3.3180816
7.232612 19.327722 3.4029355
6.5610039 19.236551 3.4914865
5.9098396 19.149025 3.578172
25.465163 18.97395 -3.9565577
25.320616 19.307163 -3.0388214
25.097632 19.583089 -2.3074992
24.768275 19.837771 -1.7220342
24.411206 20.080687 -1.2456145
23.996016 20.268358 -0.83009801
23.53879 20.41869 -0.46541384
23.047951 20.560077 -0.10608063
22.4578 20.626257 0.22394402
21.831236 20.662011 0.55484623
21.176766 20.634775 0.88158064
20.405396 20.53382 1.2256019
19.474581 20.404688 1.5529248
18.511236 20.256463 1.8555001
17.616417 20.101254 2.1479196
16.739353 19.959258 2.4142444
15.857169 19.825831 2.661479
14.972766 19.717799 2.8448117
14.041074 19.611717 3.0210107
13.20488 19.527876 3.1542519
12.437598 19.439969 3.2615669
11.670057 19.354358 3.364677
10.914731 19.256817 3.4746254
10.156132 19.155306 3.5794251
[...]
POINT_DATA 32400
VECTORS normals float
0.7496517 0.66020867 -0.046333964
0.66600114 0.74402117 0.053618825
0.59025558 0.80233677 0.0886231
0.50353193 0.85050646 0.15196826
0.42175939 0.88354465 0.2036366
0.33663399 0.90992359 0.24231513
0.27359282 0.93076977 0.24251721
0.19545592 0.94515649 0.26167955
0.11416105 0.95222271 0.28326519
0.061312595 0.95870075 0.27772944
0.024094882 0.96047516 0.27732094
-0.0048801535 0.96763424 0.25230966
-0.022201777 0.96450048 0.26314615
-0.034581859 0.96322042 0.26647798
-0.04142883 0.96118969 0.27276003
-0.037656662 0.96002628 0.2773653
-0.046613293 0.95343463 0.29797585
-0.047474375 0.95163354 0.30354538
-0.051762372 0.94987976 0.30830033
-0.05671397 0.94943932 0.30878552
-0.055917871 0.95017339 0.30666548
-0.054626884 0.95117564 0.30377755
-0.054227013 0.94975767 0.30825282
-0.057707756 0.9473152 0.31506147
-0.055915578 0.93842967 0.34091523
-0.062720819 0.93829496 0.34010098
-0.063316915 0.93980189 0.33580259
-0.063943903 0.93905237 0.33777481
-0.079103012 0.93887874 0.33503646
-0.086530368 0.94085527 0.32757267
0.81212143 0.5831499 -0.019873983
0.72841293 0.67471323 0.11906576
0.61789288 0.75732043 0.21136261
0.52263915 0.81130542 0.26197679
0.42438277 0.8531336 0.30341774
0.34038142 0.8831501 0.32277916
0.27044253 0.90237913 0.3355186
0.20826588 0.91371116 0.34893729
0.14851129 0.92052761 0.36134929
0.087750008 0.92819663 0.36159502
0.035126094 0.93442456 0.35442475
0.010194472 0.93702266 0.34911975
-0.013157472 0.93303494 0.35954511
-0.031262873 0.92604094 0.37612605
-0.03957904 0.9260391 0.37534662
-0.041099078 0.92814767 0.36993618
-0.043054943 0.92794888 0.37021231
-0.046254713 0.92606624 0.37451545
-0.048824848 0.92424312 0.37866976
-0.05146656 0.92171389 0.38444077
-0.049935195 0.92155288 0.38502827
-0.051096385 0.91856454 0.39195452
-0.05078899 0.91846764 0.39222146
-0.054302748 0.91809905 0.39261348
-0.054937312 0.91803158 0.39268297
-0.060949742 0.91701039 0.394179
-0.058745868 0.91700295 0.39453076
-0.05830696 0.91910194 0.38968183
-0.064357392 0.91668347 0.3943977
-0.072332739 0.91661866 0.39316436
0.87348548 0.48672567 0.011010435
0.78641398 0.59686177 0.15908828
0.67484248 0.67891905 0.28923442
0.56057061 0.74905343 0.35309993
0.46555193 0.79595734 0.38692805
0.37686155 0.82763508 0.41592733
0.2960486 0.85890695 0.41789242
0.22774885 0.87866237 0.41962234
0.15269459 0.89241515 0.4245934
0.096882633 0.89704167 0.431196
0.053438604 0.89777818 0.43719407
0.022446498 0.89829184 0.43882562
-0.0076616088 0.89671207 0.44254803
-0.021539266 0.89949089 0.4364083
-0.032307396 0.90136711 0.43184901
-0.036716381 0.90396758 0.42602175
-0.040357129 0.90563857 0.42212566
-0.045148229 0.90640158 0.4199974
-0.048731002 0.9063524 0.41970301
-0.047651227 0.90324837 0.42646423
-0.045222486 0.9013887 0.43064293
-0.045223741 0.90182942 0.42971911
-0.04834612 0.90171556 0.4296181
-0.052461863 0.89869326 0.43542873
-0.052247343 0.89909338 0.43462778
-0.050816691 0.89815681 0.43672875
-0.048563805 0.89820444 0.43688711
-0.053540932 0.89658826 0.43961671
-0.062209675 0.89418545 0.4433535
-0.073855766 0.89216269 0.44563557
0.91288746 0.4078027 0.018260526
0.84549815 0.49943779 0.1889306
0.72386963 0.60640803 0.32906238
0.61080582 0.66304528 0.43276692
0.5137661 0.71003469 0.48155491
0.43934106 0.7464085 0.49985376
0.34239956 0.79640215 0.49850391
0.26775325 0.81607716 0.51217797
0.18257112 0.83819443 0.51390455
0.11363981 0.85011754 0.51418495
0.064356012 0.85412009 0.51607866
0.029128468 0.85673871 0.51492749
0.0063991806 0.8646414 0.50234878
-0.0063355582 0.86787793 0.49673712
-0.018227966 0.87070136 0.49147419
-0.027151772 0.87331151 0.48640496
-0.034062883 0.87761103 0.47816169
-0.041281292 0.88159478 0.47019836
-0.039340621 0.88197945 0.46964301
-0.040336513 0.87784568 0.47724201
-0.039929498 0.87577551 0.48106433
-0.039870587 0.87406092 0.4841775
-0.039454523 0.8709644 0.48975949
-0.043986415 0.87305836 0.48562774
-0.048250344 0.87059146 0.48963498
-0.046988962 0.86601987 0.49779677
-0.051727649 0.86320043 0.50220441
-0.053573597 0.85796074 0.51091413
-0.062011496 0.85234719 0.51928686
-0.07367491 0.849347 0.52266785
0.94432922 0.32767738 0.029493519
0.88227505 0.41303364 0.22581838
0.7720395 0.51845981 0.36763357
0.65930631 0.57340768 0.48633201
0.56227711 0.61915427 0.54817191
0.48375924 0.65983571 0.5749729
0.39193876 0.71296132 0.58143802
0.31310466 0.73843039 0.59723197
0.2269498 0.7639204 0.6040856
0.14414714 0.78639539 0.60066954
0.079339303 0.80477902 0.58824825
0.044234528 0.81048941 0.58408066
0.023417129 0.81819063 0.57446995
0.010735304 0.82603333 0.56351902
-0.0032450424 0.83341883 0.55263236
-0.014801339 0.83443782 0.55090329
-0.025298347 0.84057502 0.54110408
-0.034433194 0.84200916 0.53836319
-0.032885367 0.84348862 0.53613945
-0.032123304 0.84736407 0.53003983
-0.030400392 0.84338709 0.53644574
-0.032299751 0.83756132 0.54538771
-0.03565643 0.83782751 0.54476938
-0.037127486 0.83485824 0.5492115
-0.039088458 0.83069622 0.55535204
-0.044480991 0.82053631 0.56986104
-0.052155782 0.82072707 0.56893484
-0.054852418 0.81651916 0.5747066
-0.06404736 0.81160698 0.58068239
-0.073872434 0.81132874 0.5799039
0.9660376 0.2537136 0.048997588
0.90979888 0.3350113 0.2450172
0.81086245 0.43609292 0.39028842
0.70013922 0.49735685 0.51229018
0.60064914 0.54066476 0.58898407
0.52101483 0.57801517 0.62804619
0.44843593 0.61315921 0.65033914
0.36327526 0.64917369 0.66828482
0.27711201 0.67850009 0.68032827
0.19304178 0.70865689 0.67863118
0.11807641 0.74322197 0.65854314
0.070329852 0.76294606 0.6426251
0.043159576 0.77868761 0.6259256
0.031139877 0.78659597 0.61668232
0.019373628 0.79332296 0.60849268
0.0040141207 0.78950785 0.61372733
-0.0059911579 0.79141533 0.61124945
-0.017231235 0.79821893 0.60212094
-0.021766638 0.80457778 0.59344823
-0.018125676 0.80787512 0.58907492
-0.020935947 0.8047203 0.59328486
-0.025656606 0.80084603 0.59832047
-0.026263682 0.79874915 0.60109069
-0.032962223 0.79562729 0.604889
-0.0359364 0.78714072 0.61572563
-0.040959132 0.78326436 0.62033805
-0.04572253 0.78237902 0.62112199
-0.053527182 0.78370764 0.61881918
-0.060383708 0.78552005 0.61588316
-0.066338947 0.78540792 0.61541331
0.97676353 0.20087796 0.074706508
0.93890848 0.26082932 0.22454159
0.83883155 0.35725665 0.41076674
0.73415192 0.42025055 0.53330145
0.6258298 0.47408271 0.6193405
0.55155549 0.49230118 0.67336921
0.4785295 0.52681554 0.70247769
0.39964441 0.56337748 0.72311145
0.32311743 0.6003085 0.73159062
0.24695504 0.6301758 0.73613291
0.17507631 0.66768489 0.72356421
0.10853537 0.70598203 0.69986388
0.075130926 0.73269514 0.6763972
0.050601121 0.75219769 0.65699175
0.034481819 0.75796312 0.65138538
0.020940628 0.75809529 0.65180751
0.0079643304 0.75750351 0.65278251
0.00059827417 0.75769148 0.65261265
-0.0033999067 0.76737783 0.64118617
-0.0046587301 0.76721409 0.64137418
-0.011381771 0.76886766 0.63930664
-0.018358238 0.7699935 0.63778757
-0.023440452 0.77036868 0.63716767
-0.027755403 0.76918023 0.63842886
-0.031370565 0.76779565 0.63992634
-0.035871105 0.76719919 0.64040507
-0.040653486 0.76552167 0.6421245
-0.045977386 0.76518462 0.64216709
-0.051321618 0.76701255 0.6395763
-0.057946528 0.76790376 0.63793888
0.98665842 0.15294749 0.055787329
0.95221164 0.20049442 0.23042347
0.87234952 0.26544272 0.41054412
0.771474 0.34498065 0.53461783
0.65596628 0.40623907 0.63614311
0.58041706 0.43821126 0.68635773
0.50820646 0.47311092 0.71964731
0.43437748 0.50904426 0.74309498
0.36204877 0.54161752 0.75866405
0.29003133 0.57576311 0.76444664
0.22459605 0.61272236 0.75771229
0.15728868 0.65559667 0.73854809
0.10791901 0.68543586 0.72009108
0.074231827 0.70470128 0.70561019
0.05550203 0.71933966 0.69243771
0.037943617 0.72589241 0.68676086
0.026593706 0.72748942 0.68560333
0.017884368 0.73183135 0.68125107
0.010973468 0.73892956 0.67369332
0.0087750861 0.74316201 0.66905397
0.002352117 0.74390206 0.66828451
-0.0073318796 0.74650221 0.66534254
-0.015314789 0.7523097 0.65863159
-0.021777225 0.7516892 0.65915787
-0.027968436 0.75412791 0.65613174
-0.03209692 0.75391938 0.65618242
-0.034157013 0.75576117 0.65395593
-0.03873947 0.7573268 0.65188601
-0.044995821 0.75891718 0.64963073
-0.050825349 0.75946866 0.64855543
0.99102125 0.11812608 0.062634695
0.96203307 0.13837284 0.23525588
0.90024616 0.18978267 0.39184102
0.79847477 0.26457987 0.54077309
0.68237438 0.33720462 0.64858172
0.60356576 0.38208661 0.69979868
0.53714316 0.42817409 0.72673529
0.46409885 0.46315555 0.75504913
0.39679169 0.4920369 0.77489099
0.31814387 0.53540546 0.78238448
0.26362233 0.5696821 0.77843791
0.20020254 0.6090657 0.76743594
0.14544173 0.63962803 0.75479977
0.11004909 0.6596154 0.74350301
0.08237965 0.68201703 0.72668175
0.064762923 0.69300652 0.71801652
0.045853922 0.70199329 0.71070587
0.031248595 0.71205557 0.70142739
0.020568754 0.72216659 0.69141329
0.018567226 0.72468449 0.68883064
0.010862245 0.72706987 0.68647755
-0.00021098224 0.73280224 0.68044164
-0.0074365725 0.73647483 0.67642407
-0.014144085 0.7403395 0.67208435
-0.019552474 0.74248735 0.66957466
-0.023603584 0.74567522 0.66589139
-0.027190273 0.74787893 0.66327807
-0.031359812 0.7512338 0.65929078
-0.037840205 0.75437813 0.65534857
-0.048007604 0.75427733 0.65479843
0.99423496 0.086761004 0.063002915
0.96661275 0.10008472 0.23588735
0.9128337 0.13051076 0.38691289
0.83824554 0.18320541 0.51359536
0.71790027 0.26082352 0.64543806
0.63715679 0.32912342 0.69692826
0.57773854 0.37427386 0.7253532
0.49699968 0.40766685 0.76602811
0.42759844 0.45404403 0.78166719
0.36241295 0.49026086 0.79265449
0.31044726 0.53128122 0.78826567
0.23468942 0.57903308 0.78079547
0.17895061 0.60034788 0.77946077
0.13946901 0.62118123 0.77115645
0.1178027 0.64500699 0.75504206
0.097929011 0.66168349 0.74336053
0.076302599 0.67488054 0.7339715
0.055643363 0.6895165 0.72212936
0.037692012 0.70079035 0.71237083
0.027342516 0.71091458 0.70274664
0.020201934 0.71671675 0.69707172
0.011097578 0.71876505 0.69516447
0.0021862503 0.72425042 0.68953357
-0.0028122917 0.72847296 0.68506878
-0.010634482 0.73401062 0.67905473
-0.01251938 0.7382184 0.67444559
-0.017914612 0.74146138 0.67075636
-0.022609719 0.74368072 0.66815252
-0.031557869 0.74672561 0.66438314
-0.042526257 0.7476282 0.66275455
0.99611672 0.064747091 0.059659841
0.9671057 0.071489619 0.2441225
0.92106784 0.07961216 0.38117704
0.85955702 0.12483583 0.49555802
0.76085967 0.19107082 0.62014877
0.68163106 0.26296969 0.68280747
0.60925852 0.32235403 0.72449426
0.53414023 0.37008431 0.76008672
0.46408292 0.41342486 0.78339449
0.39966512 0.4612163 0.79217884
0.34338134 0.49757846 0.79655818
0.28430945 0.52532657 0.80199759
0.21110875 0.56370592 0.79854163
0.17050052 0.59083267 0.78857233
0.14088614 0.61388362 0.7767226
0.12132115 0.63280471 0.76474792
0.10295081 0.64984095 0.75306565
0.079518301 0.66624378 0.74148235
0.060570678 0.68505112 0.72597256
0.043974351 0.69688951 0.71582907
0.029987214 0.70696467 0.70661285
0.020956644 0.71164155 0.70223011
0.013323543 0.71551083 0.69847458
0.006039307 0.72032211 0.69361342
0.0012426439 0.72587407 0.68782649
-0.00079648986 0.73011096 0.68332815
-0.0054514112 0.73198429 0.6812997
-0.012695138 0.73602173 0.67683887
-0.021160801 0.73718494 0.6753596
-0.035861659 0.73855104 0.67324313
0.99766205 0.038111179 0.056727092
0.96558865 0.03888474 0.2571508
0.92737647 0.042750899 0.37167896
0.87494838 0.071114074 0.47896568
0.79991127 0.12449805 0.58706235
0.72248794 0.1940403 0.66359592
0.64907492 0.25524291 0.71662598
0.57890047 0.30717019 0.75532822
0.51102741 0.34999928 0.78508056
0.44535789 0.40592259 0.79804962
0.37837714 0.45075336 0.80848757
0.31121189 0.4907913 0.81380038
0.25125151 0.52594462 0.81256072
0.2045764 0.55818731 0.80409914
0.1781584 0.57771686 0.79655685
0.1559584 0.60274756 0.78254224
0.13719959 0.62037476 0.77221204
0.11213429 0.64060881 0.7596356
0.092634689 0.66217833 0.74359846
0.070079996 0.68345846 0.72661773
0.047286125 0.69480111 0.71764576
0.033258911 0.70341733 0.70999852
0.025184954 0.70889348 0.70486577
0.016303788 0.71610642 0.69780067
0.012465168 0.71907799 0.69481758
0.0074754766 0.72369081 0.69008386
0.0023259699 0.72698853 0.68664567
-0.003072197 0.72934222 0.68414216
-0.014757614 0.7292803 0.68405589
-0.027372774 0.73059854 0.68225838
0.9981771 0.0020747171 0.060317301
0.97123774 0.023674317 0.236932
0.93543818 0.02377201 0.3526901
0.88852623 0.042286787 0.45687303
0.8318419 0.070858047 0.55047088
0.7596156 0.12838607 0.63757443
0.68162097 0.19423978 0.70545288
0.61689831 0.24432109 0.7481602
0.54696671 0.28635457 0.78665651
0.49607772 0.3367511 0.80031594
0.41522751 0.39931712 0.81739339
0.3502959 0.44278988 0.82536653
0.28361978 0.49428204 0.82173298
0.23931665 0.52244892 0.81839762
0.20646424 0.55028439 0.80904858
0.18227682 0.57469351 0.79781109
0.15767456 0.59696975 0.78661671
0.14157371 0.61641812 0.77458737
0.12398107 0.63715223 0.76070081
0.097820952 0.65690487 0.74760087
0.072130894 0.67727988 0.73218105
0.057041215 0.68757913 0.72386549
0.041301065 0.69742232 0.71546931
0.0292542 0.70707236 0.70653582
0.018219142 0.71618763 0.69766994
0.013862171 0.7217459 0.69201929
0.0073370088 0.72138247 0.69249802
0.0023725239 0.72256349 0.69130049
-0.0065818549 0.72472482 0.68900698
-0.019791108 0.72479466 0.68868063
0.9977755 -0.019941213 0.063611261
0.97047103 -0.0020963803 0.2412086
0.93542715 0.0029105502 0.35350754
0.89589118 0.012722553 0.44409135
0.84544384 0.03465007 0.53293909
0.78453473 0.0773347 0.61524353
0.71627881 0.12840801 0.68589798
0.65011632 0.17925748 0.73838711
0.59085309 0.21896132 0.77649763
0.53593731 0.27626628 0.797777
0.46903944 0.33518054 0.8171022
0.3953428 0.39713804 0.82824239
0.32335116 0.44954459 0.83267862
0.2696287 0.49708965 0.82474374
0.23906108 0.51982691 0.8201401
0.21108574 0.54513506 0.81133876
0.19101736 0.57014049 0.79903204
0.17583356 0.58740284 0.78996232
0.1520363 0.61301331 0.77530616
0.1285852 0.63608478 0.76082981
0.094731688 0.65645242 0.7483957
0.074589659 0.66925879 0.73927603
0.058996958 0.68256666 0.72843813
0.043106007 0.69708573 0.71569082
0.029621044 0.70996413 0.70361462
0.020654567 0.71697549 0.69679232
0.011637616 0.71854157 0.69538664
0.006333786 0.71963151 0.69432728
-0.0040510528 0.72302176 0.69081338
-0.016426801 0.72290227 0.690755
0.99663246 -0.038339848 0.072483064
0.97467399 -0.024002244 0.22233872
0.93535638 -0.020763988 0.35309673
0.9036078 -0.014067553 0.42812971
0.85546204 0.0041018265 0.51784928
0.80151088 0.037110964 0.59682752
0.74184196 0.074855037 0.66638369
0.68376509 0.1187505 0.71997474
0.62752733 0.16404537 0.76111665
0.58976703 0.20596114 0.78086802
0.52351565 0.26533448 0.80964744
0.45506284 0.32467468 0.82915871
0.39375357 0.38835794 0.83314839
0.31916915 0.44321552 0.83767002
0.27112175 0.48639715 0.8306087
0.24803608 0.51879654 0.81812484
0.21761226 0.54966955 0.80654094
0.20214583 0.5685619 0.79741735
0.18119685 0.59313642 0.78444686
0.15219873 0.61617793 0.77276148
0.12304799 0.63044982 0.76641517
0.09979065 0.65123396 0.75228728
0.083398394 0.66798977 0.73948251
0.067599292 0.6791158 0.73091181
0.049967266 0.69877319 0.71359604
0.035333957 0.70842296 0.70490313
0.022198072 0.7142392 0.69954958
0.011372697 0.71830877 0.69563149
0.0025335023 0.72145707 0.69245453
-0.007565879 0.72371619 0.69005625
0.99509059 -0.053744466 0.08310381
0.97229807 -0.045270608 0.22931863
0.93663938 -0.045046871 0.34738661
0.90306019 -0.034442891 0.42813079
0.86616503 -0.019062449 0.49939439
0.82179648 0.0077403774 0.56972855
0.76897847 0.03808361 0.63813929
0.71773374 0.074261279 0.69234641
0.6655726 0.10947699 0.73826005
0.62180686 0.15707718 0.7672568
0.57370658 0.19806214 0.79475288
0.51694769 0.26048453 0.81542192
0.44205062 0.33814952 0.83081054
0.3735291 0.39514193 0.83924899
0.31737241 0.45410844 0.83250242
0.27481781 0.49576453 0.82382808
0.24660574 0.52323987 0.815724
0.22170441 0.5461883 0.8077905
0.20573719 0.56671354 0.7978145
0.18126393 0.59228633 0.78507343
0.15459997 0.60425145 0.78165148
0.1286033 0.62676834 0.76851977
0.11290845 0.64726918 0.75385296
0.0949379 0.66626669 0.73964552
0.07518273 0.68823271 0.72158388
0.056659431 0.70039394 0.71150407
0.034953982 0.70660427 0.70674509
0.022236913 0.71190439 0.70192425
0.011249099 0.71619093 0.69781374
0.0013733734 0.71894573 0.69506485
0.99548339 -0.05793845 0.07520609
0.97411086 -0.055501038 0.21915217
0.93867217 -0.056767683 0.34010585
0.90491286 -0.047880381 0.422895
0.87329806 -0.036299107 0.48583215
0.84005523 -0.012358566 0.5423601
0.78872178 0.019684582 0.61443508
0.74300187 0.050554093 0.66737733
0.69394796 0.080942677 0.71546105
0.65334447 0.10985542 0.74904793
0.61248498 0.15226969 0.77567782
0.55421015 0.20906935 0.80569294
0.5056934 0.27187623 0.81875363
0.43943733 0.32403976 0.83779058
0.38473107 0.39380884 0.83480333
0.33046651 0.44525305 0.83219085
0.28008691 0.4882915 0.82651239
0.24792421 0.51412303 0.82110359
0.23506767 0.53747714 0.80985277
0.21189272 0.56249145 0.79919012
0.18686724 0.57611484 0.79572126
0.16424744 0.60640532 0.7780073
0.14768959 0.62348718 0.76775747
0.12557822 0.65587684 0.74434916
0.098085663 0.67266254 0.7334196
0.069780418 0.69066446 0.71980088
0.048249638 0.69627831 0.71614837
0.031446906 0.69794915 0.71545655
0.023099385 0.70756514 0.70627048
0.015315844 0.70953037 0.7045084
0.99443542 -0.067169667 0.081156799
0.97173192 -0.06726596 0.2263015
0.94393311 -0.068316551 0.32299091
0.91114607 -0.056608296 0.40817685
0.88122672 -0.043221052 0.47071373
0.85051191 -0.026271303 0.52529926
0.80903314 0.00086123764 0.5877624
0.76140211 0.028183645 0.64766697
0.71332213 0.062816966 0.69801545
0.67242927 0.089952444 0.73467506
0.63585781 0.11571613 0.76308232
0.60140553 0.1549336 0.78377737
0.55655949 0.2049202 0.80513927
0.49815746 0.26293678 0.82625867
0.43065518 0.32491431 0.84200167
0.37810375 0.3873263 0.84084237
0.32939666 0.43156644 0.8397906
0.28592009 0.4728772 0.83344877
0.26821435 0.50215312 0.82213339
0.24087611 0.53480724 0.80991352
0.21498206 0.5579381 0.80155336
0.19840919 0.58494439 0.78643109
0.17806373 0.60677852 0.77466969
0.15408476 0.63064188 0.76062389
0.12783598 0.65113801 0.7481158
0.094684678 0.66666356 0.7393203
0.071547575 0.67720093 0.73231131
0.052033359 0.68124046 0.73020817
0.042049809 0.68740185 0.72505897
0.033139858 0.69238541 0.72076639
0.99382147 -0.07777698 0.079180986
0.97340411 -0.079334002 0.21491989
0.94124787 -0.080278572 0.32803629
0.91508915 -0.076021483 0.39602093
0.88547312 -0.060237499 0.46076979
0.85814584 -0.037861638 0.51200802
0.81896321 -0.010301883 0.57375355
0.77805499 0.018945681 0.62791042
0.74175452 0.043608677 0.66925221
0.69044546 0.074484997 0.71953947
0.6557444 0.096780873 0.74875413
0.62141114 0.12877371 0.77282956
0.58454631 0.17049235 0.79324522
0.53030502 0.21907296 0.81901381
0.47350013 0.28024106 0.8350225
0.4204818 0.33425212 0.84348715
0.36873212 0.38606603 0.8455706
0.34116576 0.42276713 0.83956768
0.3118334 0.4706603 0.82537192
0.28433217 0.50534374 0.81472874
0.25271035 0.53576929 0.80566044
0.2315619 0.56243667 0.79375316
0.21406708 0.58018256 0.78585208
0.1953067 0.59570558 0.77909573
0.17151561 0.61152325 0.77241292
0.13043011 0.63746941 0.75935547
0.098422556 0.64517219 0.75767133
0.077944516 0.65995306 0.74725271
0.066708438 0.66617447 0.74280654
0.051645708 0.67678572 0.73436626
0.99312069 -0.089381366 0.075645721
0.97001874 -0.094695061 0.22382245
0.94055059 -0.094237825 0.32631859
0.9195066 -0.088153606 0.38306207
0.89526768 -0.074123927 0.43931927
0.86705517 -0.056378239 0.49501194
0.83301982 -0.028613827 0.5525027
0.79572287 -0.00062266918 0.60566057
0.76089813 0.02312137 0.64845927
0.71124947 0.055679946 0.700731
0.67009108 0.081196251 0.73782458
0.64406057 0.10577819 0.75762587
0.61337657 0.14256835 0.77681623
0.57093026 0.18540661 0.79978936
0.51005982 0.24085829 0.82572772
0.45880243 0.28699236 0.84091362
0.41823318 0.33046905 0.84609173
0.38105474 0.38115738 0.84232793
0.35086943 0.43676429 0.82832819
0.3283893 0.47300912 0.8175713
0.29134468 0.50607368 0.8117929
0.26725965 0.52625083 0.80723748