# vtk DataFile Version 2.0
Grain example
ASCII
DATASET UNSTRUCTURED_GRID
POINTS 900 float
-2.9295412 -20.153681 1.6421398
-2.8891821 -20.188557 2.1006882
-2.8362009 -20.201922 2.5637242
-2.8414783 -20.181498 3.0438216
-2.8840192 -20.133435 3.5260655
-2.9215833 -20.078752 4.0088517
-2.9301362 -20.00262 4.4775911
-2.9379263 -19.918496 4.9575818
-2.9657016 -19.83436 5.4286125
-2.9730021 -19.713395 5.9059009
-2.9796008 -19.54967 6.4006516
-2.9895713 -19.337895 6.9506898
-3.0060439 -19.089662 7.5246592
-3.0156621 -18.801681 8.1038381
-2.9910874 -18.414955 8.7176652
-2.9787789 -17.978261 9.3719185
-3.0101827 -17.549619 10.008096
-3.0498358 -17.064436 10.709236
-3.1129853 -16.549356 11.436456
-3.1868438 -15.977343 12.114149
-3.2148216 -15.346489 12.795241
-3.2456914 -14.701413 13.480042
-3.310151 -14.06055 14.137915
-3.3689141 -13.362026 14.826796
-3.4224204 -12.670052 15.498124
-3.5063116 -11.902149 16.127841
-3.6337757 -11.103071 16.730079
-3.7834832 -10.311394 17.315606
-3.9686048 -9.5011191 17.906413
-4.1413128 -8.6954044 18.452158
-2.1049107 -19.910411 1.664835
-2.0738828 -19.951752 2.1381132
-2.075846 -19.973099 2.5828759
-2.0910629 -19.960339 3.0432111
-2.1112174 -19.934858 3.5196675
-2.1402868 -19.880998 4.0151016
-2.1719632 -19.807703 4.4957802
-2.2203438 -19.726234 4.9690455
-2.2567408 -19.635604 5.4496613
-2.2710117 -19.531122 5.9258718
-2.2688251 -19.376205 6.4181747
-2.2956136 -19.1749 6.9827647
-2.3449611 -18.951835 7.5565125
-2.3957218 -18.685402 8.153362
-2.4386378 -18.338545 8.7788025
-2.4424631 -17.899239 9.4421524
-2.4793191 -17.443347 10.108858
-2.5280202 -16.943506 10.834571
-2.6140684 -16.440161 11.541575
-2.7136538 -15.896338 12.223559
-2.7824893 -15.297275 12.894447
-2.8492824 -14.666524 13.553854
-2.918084 -14.005724 14.221961
-2.9767088 -13.305987 14.906278
-3.039045 -12.609341 15.594036
-3.1549483 -11.838732 16.208716
-3.2923098 -11.043573 16.798887
-3.4516937 -10.262707 17.374204
-3.650899 -9.4503195 17.958159
-3.8561938 -8.6100939 18.532288
-1.289985 -19.629327 1.6778539
-1.3238993 -19.680038 2.1330483
-1.3482616 -19.715577 2.5843385
-1.3577504 -19.724981 3.0572084
-1.3636046 -19.689201 3.5288158
-1.3868338 -19.638861 4.0148186
-1.4754233 -19.601535 4.4964255
-1.5680982 -19.535919 4.9797773
-1.6437445 -19.454613 5.4710747
-1.7016026 -19.353723 5.9545612
-1.7449617 -19.226901 6.4616684
-1.7673298 -19.041132 7.0214126
-1.7932737 -18.809401 7.6034383
-1.8261366 -18.538735 8.202644
-1.8604364 -18.22083 8.8528161
-1.9095009 -17.79779 9.5310587
-1.9385385 -17.323484 10.230018
-2.004885 -16.826023 10.946273
-2.1163257 -16.323518 11.646427
-2.2216469 -15.79021 12.343626
-2.3596023 -15.239385 12.978576
-2.4537768 -14.62524 13.629947
-2.5184609 -13.946287 14.303901
-2.5816111 -13.248568 14.99102
-2.6616474 -12.539834 15.672079
-2.8078927 -11.780522 16.271726
-2.9698649 -10.984837 16.867997
-3.1386309 -10.228865 17.428193
-3.3408404 -9.3988122 18.014929
-3.5829873 -8.5567319 18.589332
-0.52568145 -19.307758 1.6578614
-0.5701078 -19.376568 2.1302228
-0.61971978 -19.423932 2.5904758
-0.66902109 -19.45231 3.0676041
-0.75328558 -19.457487 3.5533572
-0.83056236 -19.439909 4.0191764
-0.90549094 -19.404637 4.4987988
-0.99196179 -19.361112 4.9927217
-1.0755324 -19.273535 5.4918158
-1.1459994 -19.177575 5.996803
-1.1984478 -19.056137 6.514157
-1.2295347 -18.89424 7.0631339
-1.2520346 -18.657011 7.6550114
-1.267422 -18.374918 8.2747795
-1.2831898 -18.05529 8.9333899
-1.3513581 -17.666127 9.6515961
-1.417369 -17.202401 10.357184
-1.5108182 -16.711819 11.052257
-1.6184124 -16.207099 11.751412
-1.7742024 -15.686289 12.42918
-1.9158021 -15.145943 13.071643
-2.0587582 -14.571517 13.706964
-2.1303705 -13.891409 14.381835
-2.200672 -13.183239 15.080347
-2.330512 -12.471386 15.738291
-2.4814918 -11.723713 16.343099
-2.6593616 -10.947113 16.92848
-2.8435373 -10.209219 17.47775
-3.0786361 -9.3764518 18.057686
-3.3318589 -8.526985 18.642503
0.10513261 -19.002357 1.6469035
0.050988594 -19.070125 2.1103283
0.005288289 -19.129654 2.5970138
-0.055691914 -19.182189 3.0750691
-0.15321093 -19.21844 3.5498588
-0.25343218 -19.215731 4.0264499
-0.34853747 -19.205187 4.4990198
-0.41734799 -19.157202 4.9954049
-0.4819753 -19.082854 5.5106781
-0.56397447 -18.981454 6.0393186
-0.63472992 -18.867817 6.5677197
-0.68454996 -18.722856 7.1190945
-0.69159731 -18.475502 7.7228671
-0.69577565 -18.187597 8.3639785
-0.7078124 -17.872618 9.0449351
-0.78328885 -17.488197 9.7647843
-0.88785452 -17.075951 10.45651
-1.0117051 -16.59039 11.156503
-1.1629326 -16.097801 11.830564
-1.3254659 -15.582676 12.511077
-1.4848999 -15.051455 13.167293
-1.6251504 -14.453211 13.815016
-1.758021 -13.829325 14.472456
-1.8565424 -13.125361 15.155077
-2.0060716 -12.40209 15.805599
-2.166825 -11.678294 16.403486
-2.3711691 -10.940795 16.96108
-2.5681219 -10.209113 17.506208
-2.8228197 -9.3571974 18.098372
-3.0764211 -8.5080548 18.683103
0.73686348 -18.66658 1.6329246
0.6876981 -18.743326 2.0879232
0.60716188 -18.815209 2.5794109
0.52514642 -18.880939 3.0557192
0.44036597 -18.935419 3.5451819
0.34917549 -18.968233 4.0262475
0.24926978 -18.960743 4.5060764
0.17000266 -18.933333 5.0073375
0.10746486 -18.87044 5.532942
0.045131633 -18.775228 6.0719735
-0.036040187 -18.651026 6.6232226
-0.085353629 -18.47384 7.2076051
-0.12310538 -18.277591 7.808492
-0.11305725 -17.98751 8.4721478
-0.12065489 -17.678101 9.1556031
-0.2148028 -17.29985 9.8620156
-0.34030042 -16.923653 10.546541
-0.51075973 -16.473384 11.228171
-0.71138809 -15.984702 11.911301
-0.87620857 -15.473854 12.594035
-1.0343316 -14.949563 13.248291
-1.1951093 -14.331592 13.924942
-1.3531036 -13.726399 14.56294
-1.5293062 -13.060259 15.216079
-1.6944485 -12.358351 15.852105
-1.8799883 -11.670185 16.435023
-2.0869809 -10.939083 16.993061
-2.3105752 -10.187198 17.546991
-2.5610869 -9.3413132 18.133936
-2.85105 -8.4934382 18.719957
1.3755588 -18.31641 1.6270287
1.3004371 -18.403649 2.068755
1.2165173 -18.485259 2.5439437
1.1210559 -18.558615 3.0334336
1.0316175 -18.613538 3.5209226
0.9447358 -18.665242 4.008735
0.8661424 -18.687306 4.5099681
0.78451911 -18.679375 5.0237714
0.71502687 -18.624688 5.5612982
0.65579951 -18.537775 6.1167863
0.6008902 -18.385486 6.7028522
0.53252837 -18.213725 7.2930288
0.49800315 -18.016586 7.9199496
0.48463488 -17.770594 8.5919063
0.46605183 -17.466247 9.2710552
0.35719373 -17.116266 9.9420759
0.18245239 -16.752787 10.603459
-0.009897641 -16.34827 11.293419
-0.21308431 -15.863507 11.978558
-0.42789612 -15.362383 12.67158
-0.59023457 -14.821124 13.345513
-0.76910675 -14.224034 14.015064
-0.96732796 -13.626475 14.641297
-1.199255 -12.991382 15.264431
-1.4061748 -12.339445 15.8729
-1.5942848 -11.667177 16.467351
-1.8208473 -10.927864 17.023157
-2.0515534 -10.167731 17.580427
-2.3125281 -9.3223671 18.171447
-2.6204418 -8.4792306 18.750631
2.0323984 -17.954424 1.6176197
1.9578187 -18.042379 2.0597716
1.8688387 -18.122503 2.5279974
1.7756447 -18.201255 3.0069329
1.6710485 -18.27054 3.4956065
1.5823143 -18.329192 3.9929927
1.5067822 -18.364698 4.5076562
1.4358634 -18.357713 5.0264983
1.364587 -18.324658 5.581689
1.2970265 -18.236228 6.1826853
1.2525304 -18.093197 6.7822526
1.2088115 -17.921002 7.3833631
1.1588461 -17.724404 8.0477374
1.1192764 -17.514798 8.7123753
1.0449837 -17.244596 9.3616433
0.88404061 -16.938312 10.001179
0.70642886 -16.582138 10.656666
0.50446554 -16.190612 11.343473
0.28474685 -15.740987 12.043111
0.069052203 -15.239397 12.737774
-0.16392482 -14.706477 13.421018
-0.37655904 -14.137857 14.074067
-0.60103375 -13.538102 14.696605
-0.85279009 -12.901303 15.314734
-1.1022249 -12.301664 15.895907
-1.3131902 -11.658081 16.496062
-1.5587318 -10.915784 17.059863
-1.8051637 -10.14592 17.616236
-2.0690054 -9.304191 18.206897
-2.3929166 -8.4700215 18.7812
2.6711909 -17.591187 1.6084349
2.6051127 -17.677179 2.0538966
2.5323308 -17.749511 2.5187638
2.449002 -17.825304 2.9927336
2.3631072 -17.891507 3.4846873
2.2936342 -17.942616 3.9887817
2.2203177 -17.987645 4.5068666
2.160298 -17.983661 5.0572526
2.1058417 -17.920443 5.633868
2.0494533 -17.837377 6.2326083
1.9830089 -17.733825 6.8604576
1.9425663 -17.582047 7.5178729
1.8932045 -17.405991 8.1672573
1.8087906 -17.217011 8.8192156
1.6160652 -17.022792 9.4191394
1.4404601 -16.734365 10.049374
1.2456197 -16.40275 10.706909
1.0394825 -16.023753 11.389646
0.7904007 -15.602712 12.08773
0.52646164 -15.129254 12.776577
0.27695433 -14.609383 13.451425
0.021155583 -14.05291 14.118436
-0.23541329 -13.44744 14.746712
-0.50638825 -12.825338 15.351345
-0.76455357 -12.226859 15.937533
-1.0483535 -11.629802 16.529856
-1.3056602 -10.90495 17.092835
-1.5504909 -10.119382 17.654552
-1.8341632 -9.2814683 18.245931
-2.169117 -8.4820463 18.798252
3.2849702 -17.225492 1.6003608
3.2364862 -17.301739 2.0512219
3.1751476 -17.379795 2.5140458
3.1216231 -17.442181 2.9979545
3.0529163 -17.498101 3.4949886
2.9927556 -17.54692 3.9983566
2.9533715 -17.559004 4.5275634
2.9069085 -17.540339 5.1018591
2.8495914 -17.494534 5.6859488
2.7912081 -17.422028 6.2864875
2.7464496 -17.315932 6.9493017
2.7089675 -17.192056 7.628106
2.6673046 -17.053612 8.2937686
2.4939981 -16.902345 8.8852957
2.2768071 -16.735533 9.4823231
2.0442639 -16.509844 10.101219
1.8321994 -16.198926 10.747883
1.5649015 -15.86431 11.413989
1.2604169 -15.47424 12.090825
0.97188184 -15.016768 12.789989
0.71295365 -14.505843 13.478003
0.43897584 -13.946546 14.140461
0.12892558 -13.360785 14.784321
-0.15501022 -12.751249 15.386348
-0.44830551 -12.147743 15.981405
-0.74472363 -11.550008 16.576532
-1.0550998 -10.883701 17.130655
-1.2997703 -10.095046 17.691657
-1.6085064 -9.2726778 18.275769
-1.9542102 -8.5040424 18.813859
3.8714692 -16.851944 1.6039517
3.8332943 -16.923415 2.0625318
3.8047943 -16.984078 2.5313205
3.7672798 -17.046422 3.0180782
3.7364354 -17.088787 3.5156771
3.7094885 -17.102708 4.0466098
3.6831538 -17.100445 4.5823207
3.6523054 -17.077018 5.1451379
3.5983248 -17.043618 5.738202
3.5489609 -16.970429 6.3749758
3.5154861 -16.873143 7.0364622
3.4784486 -16.76305 7.7189803
[...]
POINT_DATA 900
VECTORS normals float
0.2493072 -0.96042002 -0.12425498
0.26453453 -0.96250705 -0.060013778
0.26955319 -0.96285796 0.015672319
0.26234867 -0.96329448 0.056893915
0.25829931 -0.96172227 0.091497255
0.25117284 -0.95860216 0.13414208
0.2476599 -0.95633987 0.15517291
0.24767302 -0.95121335 0.18398703
0.23851304 -0.94533801 0.22236813
0.23206227 -0.93710624 0.26072783
0.20960145 -0.92733504 0.31002736
0.18016181 -0.90812214 0.37796283
0.15999384 -0.89037132 0.42619349
0.14297502 -0.87324648 0.46583123
0.12555936 -0.85938878 0.49566699
0.090875879 -0.84048275 0.5341632
0.06430562 -0.82428547 0.56251067
0.044774431 -0.80704281 0.58879296
0.027801526 -0.79041153 0.611945
0.0074555411 -0.76959474 0.63848912
-0.010227019 -0.74954586 0.66187341
-0.023781928 -0.72645089 0.68680676
-0.037180937 -0.70606983 0.70716545
-0.05125318 -0.68717092 0.72468561
-0.055903269 -0.66646658 0.74343602
-0.059994729 -0.63930378 0.76661028
-0.068802165 -0.61688635 0.78403922
-0.084238298 -0.59566355 0.79880464
-0.12073686 -0.56735991 0.81457065
-0.16340864 -0.52355009 0.83617756
0.30974431 -0.94438012 -0.11047469
0.30953281 -0.94963986 -0.048719439
0.31505775 -0.94896917 0.01400433
0.30766549 -0.94983188 0.056225889
0.29923544 -0.9499409 0.089835576
0.29298975 -0.94756376 0.12759281
0.28870902 -0.94502079 0.15356698
0.28819156 -0.94145041 0.17497645
0.27931537 -0.93852881 0.20284626
0.26838695 -0.93173091 0.24463432
0.24433084 -0.91971885 0.30727786
0.21969617 -0.90459609 0.36529374
0.19431272 -0.89175868 0.40866737
0.16938885 -0.87326982 0.45684487
0.14147782 -0.85761013 0.49445818
0.10875629 -0.84342476 0.52612427
0.080450997 -0.82545891 0.55869959
0.056233436 -0.80807795 0.58638539
0.033937599 -0.7871548 0.61582105
0.019778089 -0.77072563 0.63686014
0.0034172703 -0.75241122 0.65868481
-0.012547688 -0.7269938 0.68652936
-0.026482431 -0.70157291 0.71210543
-0.037595784 -0.68717939 0.72551433
-0.042077507 -0.6657311 0.74500442
-0.051388386 -0.63685181 0.76927173
-0.059979724 -0.61815604 0.7837637
-0.073058456 -0.59988093 0.79674672
-0.10808522 -0.57376059 0.81185982
-0.15120366 -0.52629296 0.83675156
0.35439815 -0.92901024 -0.1064985
0.35150489 -0.93493411 -0.048399538
0.34735845 -0.93773231 -0.00046460737
0.33846364 -0.94031928 0.035242146
0.32780243 -0.94115654 0.082279566
0.31926721 -0.94045983 0.11663516
0.31075501 -0.93914937 0.14638917
0.30395107 -0.93770678 0.16828471
0.29683108 -0.93489404 0.1945879
0.28395702 -0.92975697 0.23435098
0.2639882 -0.91804312 0.29581592
0.24220167 -0.90271741 0.35558349
0.22009564 -0.89429373 0.38961086
0.19027637 -0.87834234 0.43853122
0.1561159 -0.86128211 0.48355037
0.12074323 -0.84431029 0.52207395
0.093546055 -0.8267795 0.55469342
0.067861679 -0.80849011 0.58458407
0.041936944 -0.78775529 0.61455911
0.026979044 -0.77125313 0.63595655
0.015418725 -0.75146169 0.65959654
0.0014229046 -0.72574706 0.68796016
-0.015557549 -0.70489179 0.70914422
-0.024958466 -0.68622487 0.72696114
-0.03452634 -0.66374443 0.74716214
-0.044127882 -0.63812649 0.76866593
-0.056757956 -0.61907768 0.78327605
-0.072743505 -0.60171357 0.79539246
-0.094775479 -0.57625197 0.81175814
-0.13393713 -0.5374936 0.8325632
0.40226475 -0.90921085 -0.10732518
0.39390024 -0.91716325 -0.060449695
0.38518173 -0.92269419 -0.016445913
0.37054454 -0.92860536 0.019718605
0.35268349 -0.93318835 0.069093093
0.33697234 -0.93502693 0.11033714
0.32638165 -0.93488619 0.13950928
0.3163261 -0.93450052 0.1632378
0.30776002 -0.93185225 0.19218522
0.29586872 -0.92719134 0.22973444
0.28305549 -0.91639878 0.28300682
0.26004668 -0.9028365 0.34243537
0.24154928 -0.89461147 0.37593118
0.20738318 -0.87951804 0.42829924
0.17179176 -0.86686531 0.46800869
0.13630144 -0.85021548 0.50848358
0.1018255 -0.82931124 0.54943101
0.078628869 -0.81185507 0.57854027
0.054255824 -0.78751406 0.61390382
0.037118629 -0.77012387 0.6368135
0.026262015 -0.75161577 0.65907818
0.013732173 -0.72662263 0.68689954
-0.0078183475 -0.7052253 0.70894016
-0.013765472 -0.68578368 0.72767524
-0.026933154 -0.66398454 0.74726109
-0.041785917 -0.63797644 0.76892132
-0.054810374 -0.61877011 0.78365769
-0.068079921 -0.60316263 0.79470747
-0.086492121 -0.57840832 0.81114914
-0.11437229 -0.54633802 0.82971908
0.43567923 -0.89351398 -0.10870318
0.42961009 -0.90005892 -0.073000715
0.41692211 -0.90857061 -0.025988588
0.40604589 -0.91380878 0.008957967
0.38630449 -0.92112437 0.047945083
0.36498422 -0.92641665 0.092405172
0.3459294 -0.929916 0.12485626
0.33461682 -0.92915805 0.15715246
0.3247482 -0.92743125 0.18549898
0.31567061 -0.92325232 0.21899136
0.29852419 -0.91460204 0.27273874
0.27663568 -0.90174999 0.33214404
0.25764261 -0.89353499 0.36771662
0.22960148 -0.88063947 0.41443611
0.19429292 -0.86863262 0.45577148
0.15925834 -0.85365527 0.49589259
0.12514734 -0.8345566 0.53651974
0.097961789 -0.81556098 0.57031901
0.071524922 -0.78878365 0.61049533
0.059360123 -0.76650135 0.63949359
0.04228165 -0.75125337 0.6586582
0.027252528 -0.72842566 0.68458261
0.01792294 -0.70575103 0.70823319
0.0021708918 -0.68769016 0.72600105
-0.019134174 -0.66266031 0.74867563
-0.036860018 -0.63829134 0.7689119
-0.05072075 -0.62089767 0.78224899
-0.060512832 -0.60503269 0.79389776
-0.077280763 -0.58065869 0.81047096
-0.10364272 -0.54734113 0.83046726
0.46247932 -0.8788155 -0.11745717
0.4584464 -0.88465842 -0.084890441
0.44985096 -0.89190341 -0.046286237
0.4358469 -0.90000839 -0.004731093
0.41865291 -0.90770861 0.028192518
0.3967662 -0.91517016 0.070994122
0.37336678 -0.92123901 0.10916013
0.35845382 -0.92223202 0.14491019
0.34560489 -0.92166124 0.17634576
0.33616589 -0.91710973 0.21424809
0.31844191 -0.91069539 0.26311339
0.29947694 -0.90074929 0.31458589
0.27244964 -0.89380215 0.3562147
0.25298579 -0.88269521 0.39603959
0.21788852 -0.86941645 0.44344067
0.18688649 -0.85384289 0.48582482
0.15907582 -0.83611607 0.52498077
0.12877761 -0.81159074 0.56985682
0.090883387 -0.7876389 0.60939739
0.080916545 -0.76250431 0.64190318
0.066321225 -0.74634946 0.66224163
0.052711546 -0.72819162 0.68334359
0.036400643 -0.70572084 0.7075543
0.015088092 -0.6875655 0.72596559
-0.0051542044 -0.66601932 0.74591668
-0.029489545 -0.64223715 0.76593851
-0.045657079 -0.62183928 0.78181285
-0.054494348 -0.60439475 0.79481907
-0.066997556 -0.58230804 0.81020286
-0.091383572 -0.5518028 0.82895278
0.48687439 -0.8646437 -0.12387332
0.48198799 -0.87141443 -0.091238542
0.47743286 -0.87665571 -0.059435874
0.4625597 -0.88616416 -0.027415424
0.44689925 -0.89452017 0.010711516
0.43207999 -0.90040076 0.050846469
0.41010279 -0.90830416 0.082457616
0.39514379 -0.90960678 0.12836236
0.38056886 -0.90943238 0.16763079
0.36764613 -0.90644783 0.20781879
0.34667067 -0.90232753 0.25617274
0.32086962 -0.89814379 0.30063335
0.29579446 -0.89232758 0.34096498
0.2749981 -0.88364017 0.37888797
0.24351297 -0.86892919 0.43088687
0.21874799 -0.85210945 0.47545642
0.19133141 -0.83352024 0.51830136
0.16420644 -0.81136967 0.5609951
0.13086359 -0.78351865 0.60743168
0.10945266 -0.7610008 0.63945125
0.091511777 -0.74367128 0.66225269
0.075349048 -0.72623002 0.68330994
0.053809834 -0.70700139 0.70516206
0.027657618 -0.68620457 0.72688262
0.0083201304 -0.66771872 0.74436717
-0.016798668 -0.64554806 0.76353488
-0.032791461 -0.62038692 0.7836101
-0.041473493 -0.60212671 0.79732263
-0.05206055 -0.5811824 0.81210634
-0.077814181 -0.55398589 0.82888153
0.50637518 -0.85203439 -0.13274632
0.50041533 -0.85972905 -0.10222753
0.49618461 -0.86549047 -0.068753793
0.49029886 -0.87033388 -0.0461082
0.48284498 -0.87562813 -0.011666305
0.46054326 -0.88692965 0.035435906
0.44780541 -0.8916541 0.066507726
0.43623231 -0.89319908 0.10907232
0.41576998 -0.89662826 0.15229278
0.40076038 -0.89472008 0.19714738
0.38426547 -0.89163584 0.23942762
0.35545527 -0.89123381 0.28169815
0.3265367 -0.88958528 0.31939289
0.30495672 -0.8806263 0.36262752
0.27671683 -0.8656955 0.41713198
0.25056328 -0.84912266 0.46498254
0.2240957 -0.82746957 0.51485457
0.19104149 -0.80605116 0.56016486
0.16131995 -0.77856012 0.60648167
0.13517331 -0.75523592 0.6413633
0.11401441 -0.74377865 0.65863043
0.091983617 -0.72370615 0.68395059
0.070881566 -0.70460463 0.70605108
0.046069408 -0.68775179 0.72448263
0.019654112 -0.669828 0.74225614
-0.0049225579 -0.64660173 0.76281188
-0.019686642 -0.61975141 0.78455123
-0.032520831 -0.60144817 0.79824964
-0.04836973 -0.58184993 0.81185653
-0.063514936 -0.55704419 0.8280505
0.52218194 -0.8427125 -0.13100258
0.5202961 -0.84737363 -0.1060656
0.51772974 -0.85202772 -0.077489815
0.50698845 -0.86051558 -0.049755885
0.50322226 -0.86395097 -0.018870294
0.49592224 -0.86830638 0.010254534
0.48374329 -0.87414431 0.0431759
0.47451288 -0.87552416 0.091076716
0.4554426 -0.87892708 0.14163062
0.44299268 -0.87876666 0.17755742
0.42215809 -0.87919876 0.22088931
0.39390065 -0.88165719 0.25985163
0.37063786 -0.87795994 0.30300813
0.34158991 -0.87177123 0.3511855
0.31203058 -0.86049028 0.40273241
0.28204236 -0.84397183 0.45624956
0.24712592 -0.82515133 0.50799022
0.22140818 -0.80324706 0.55296707
0.19310243 -0.7740197 0.60299665
0.16354539 -0.74934032 0.64167124
0.14459205 -0.74626858 0.64975098
0.11211769 -0.72486654 0.67970444
0.086736069 -0.70589265 0.70298821
0.060162964 -0.68738518 0.72379695
0.039140399 -0.67156432 0.73991175
0.0056182846 -0.64758436 0.76197305
-0.012953187 -0.6215439 0.78327224
-0.018769081 -0.60109852 0.7989545
-0.034060177 -0.58169961 0.81269027
-0.053741341 -0.56069017 0.82627986
0.5337488 -0.83409679 -0.1392651
0.5300275 -0.8409636 -0.10886262
0.53192128 -0.84288049 -0.081315628
0.5327394 -0.84442113 -0.056050713
0.52968239 -0.84766577 -0.029988401
0.52105991 -0.85350979 -0.0041962641
0.50944884 -0.86000193 0.029301219
0.50184133 -0.86185926 0.073170346
0.49118735 -0.86249754 0.12179077
0.47260802 -0.86624398 0.16205873
0.45912746 -0.86600121 0.1981007
0.43368236 -0.86953139 0.23629382
0.4076703 -0.86594411 0.28973388
0.38236956 -0.86172458 0.33350302
0.34712063 -0.85420364 0.38709613
0.31066118 -0.83900671 0.44671845
0.27765591 -0.8223529 0.49663155
0.24497602 -0.79525513 0.55457734
0.21959585 -0.77115304 0.597579
0.19810208 -0.74642747 0.63529646
0.17200302 -0.73941497 0.65090742
0.14137072 -0.7258031 0.67321926
0.10883626 -0.70480836 0.70099917
0.082723261 -0.68872059 0.72029217
0.053692274 -0.67478518 0.73605849
0.024136447 -0.64655847 0.76248251
0.0029284087 -0.61912899 0.78528385
-0.007322053 -0.59954185 0.80030991
-0.017397033 -0.58056639 0.81402703
-0.04112828 -0.56243264 0.82581958
0.54411447 -0.82808145 -0.13498354
0.5491669 -0.82850139 -0.10954979
0.54980691 -0.83169974 -0.077381557
0.54558985 -0.83657902 -0.049671593
0.54941562 -0.83493241 -0.03209917
0.5452939 -0.83817216 -0.011045286
0.54124414 -0.84071361 0.015981623
0.53207045 -0.8444946 0.061072937
0.51438362 -0.85128207 0.10357765
0.50141064 -0.85303949 0.14460634
0.48297134 -0.85697965 0.17979032
0.4714597 -0.85470303 0.21727514
0.44634656 -0.85340881 0.26919908
0.4213249 -0.84950778 0.31752458
0.38882934 -0.84489346 0.36737826
0.35302212 -0.83355039 0.42493427
0.3052552 -0.82094202 0.48256965
0.28021463 -0.79324907 0.54058827
0.24551171 -0.76480638 0.59564688
0.22150814 -0.74515701 0.62902716
0.20700373 -0.73017938 0.65114325
0.17944963 -0.72474039 0.66524372
0.14306478 -0.70517059 0.6944544
0.10770691 -0.68981248 0.71593153
0.072562837 -0.67551953 0.73376291
0.046035736 -0.64484717 0.76292388
0.019370968 -0.61549099 0.78790584
0.01266826 -0.5970983 0.80206803
-0.0050922329 -0.58155701 0.81348972
-0.026288802 -0.56301703 0.82602707
0.56064533 -0.81831522 -0.12663729
0.56136922 -0.82150947 -0.099933883
0.56354725 -0.82255344 -0.076291123
0.56205394 -0.82538552 -0.053236389
0.56471135 -0.82466672 -0.032029632
0.56123997 -0.82760801 -0.0086419774
0.55951136 -0.82869862 0.014339867
0.55396186 -0.83091556 0.052015311
0.54386851 -0.83485321 0.085012762
0.528124 -0.83782883 0.1383036
0.52055494 -0.83754859 0.1659365
0.50455556 -0.83694414 0.2120099
0.48506225 -0.83710991 0.25290632
0.46006081 -0.83495171 0.30199287
0.4298371 -0.83229776 0.35002929
0.38836354 -0.82773906 0.40499607
0.3449698 -0.81179708 0.47114896
0.31186454 -0.78695199 0.53239748
0.27481481 -0.76233779 0.58593337
0.25144715 -0.73657332 0.62788063
0.23736041 -0.72687352 0.64444931
0.20953037 -0.71225379 0.66991907
0.16638671 -0.70372324 0.69071635
0.13321151 -0.68767934 0.71368888
0.10083604 -0.66812306 0.73718632
0.063767637 -0.6448431 0.76165022
0.043392839 -0.61153867 0.79002375
0.028124868 -0.59569682 0.80271682
0.0129725 -0.58241579 0.81278752
-0.0097549061 -0.56185945 0.8271752
0.57176766 -0.81158433 -0.12005258
0.57472979 -0.81274977 -0.095516898
0.57569702 -0.8147078 -0.069456056
0.57921906 -0.81376663 -0.047844972
0.5805738 -0.81353362 -0.033122671
0.57814434 -0.81588131 -0.0093175561
0.57757477 -0.81628014 0.0097019156
0.57457512 -0.81728424 0.043702408
0.5706982 -0.81665922 0.085856193
0.56611259 -0.81344193 0.13352437
0.56147526 -0.80984708 0.16998012
0.54474782 -0.81255123 0.20738929
0.52627486 -0.81386839 0.24627832
0.50041712 -0.81828894 0.28281782
0.46681648 -0.81888874 0.33392156
0.42743377 -0.82028405 0.38004532
0.38754406 -0.80442952 0.45022523
0.34842171 -0.78282697 0.51554267
0.31461313 -0.74944361 0.58254
0.28123553 -0.72942725 0.62357234
0.26499412 -0.72357419 0.63735274
0.24687826 -0.71058566 0.65887718
0.20927527 -0.69752377 0.6853207
0.16491694 -0.68580156 0.70885727
0.13187271 -0.66198957 0.7378207
0.099284262 -0.63784237 0.76374063
0.062338063 -0.60555864 0.79335535
0.049637142 -0.58861918 0.80688513
0.031482751 -0.58093492 0.81334092
0.0036282751 -0.5643739 0.82551132
0.57725524 -0.80906193 -0.11043179
0.58527164 -0.80586968 -0.089616744
0.59148333 -0.80348633 -0.067506993
0.5861211 -0.80917787 -0.041148785
0.58793413 -0.80856503 -0.023580606
0.59098551 -0.8066518 -0.0070004296
0.59237357 -0.8054574 0.018218943
0.59754704 -0.80022415 0.05078221
0.60050689 -0.79388423 0.095599647
0.60011046 -0.78929883 0.12990298
0.5941034 -0.78780605 0.1624893
0.58315914 -0.78745451 0.19960165
0.56813926 -0.7895389 0.23204764
0.54230855 -0.79727108 0.26506653
0.51362654 -0.80023087 0.30954536
0.47153647 -0.80097009 0.3689177
0.43518511 -0.79071585 0.43056053
0.39197165 -0.77408484 0.49714272
0.34880916 -0.74503483 0.56855543
0.31347417 -0.72105721 0.61790812
0.29035022 -0.70942352 0.64219547
0.27137615 -0.70660854 0.65349779
0.24560988 -0.69277139 0.67804394
0.20382788 -0.677092 0.70710722
0.1663156 -0.65957072 0.73301131
0.13515633 -0.63031727 0.76448212
0.097321567 -0.60086468 0.79340416
0.069460203 -0.58484063 0.80816874
0.04798514 -0.57698811 0.81534174
0.024006709 -0.56274613 0.82628111
0.58720408 -0.80259167 -0.1050618
0.59181094 -0.80272756 -0.073404947
0.5965968 -0.80074299 -0.053692909
0.6061469 -0.79463253 -0.033838986
0.60710526 -0.79452763 -0.012208526
0.61061646 -0.79189269 0.0073150678
0.61341751 -0.78887249 0.03740515
0.62140312 -0.78027857 0.070876758
0.62517115 -0.77287091 0.1087731
0.62511613 -0.76781001 0.14034816
0.62234131 -0.76509221 0.16530339
0.60997446 -0.76920505 0.19040679
0.60022412 -0.77023086 0.21558161
0.57998824 -0.77484518 0.25145297
0.55031474 -0.7837596 0.28787947
0.5194658 -0.78049372 0.34782874
0.47479475 -0.77438107 0.41821514
0.43386605 -0.75460695 0.49226883
0.38389167 -0.73464922 0.55939048
0.3436832 -0.71236252 0.61189991
0.31543208 -0.70106651 0.63953761
0.29916482 -0.69371536 0.65517891
0.27597223 -0.69285388 0.66617778
0.24067848 -0.66798516 0.70418016
0.20829254 -0.6453069 0.73497838
0.16914413 -0.6228568 0.76383223
0.13048446 -0.59391951 0.79387242
0.099399609 -0.57882593 0.80937029
0.074030388 -0.57169519 0.8171194
0.044874465 -0.56178059 0.82606831
0.60287534 -0.79318443 -0.086022063
0.61073166 -0.78958195 -0.059725872
0.61951896 -0.78408807 -0.037445209
0.62498488 -0.7803707 -0.020383155
0.63100248 -0.77575709 -0.0060670835
0.63483194 -0.77238044 0.020417165
0.63996063 -0.76695323 0.047256038
0.64006551 -0.76388641 0.082423848
0.64304759 -0.75639208 0.11983662
0.6438433 -0.75164247 0.14317613
0.63702413 -0.75329073 0.16356446
0.63164427 -0.75141999 0.19077082
0.62512612 -0.75237039 0.20774054
0.61140184 -0.75518315 0.23640264
0.58587884 -0.76364874 0.27126847
0.5546855 -0.76168968 0.33489225
0.5224155 -0.75208473 0.40180916
0.48105054 -0.7384976 0.47245284
0.4378723 -0.72078068 0.53734818
0.38255574 -0.70247976 0.60014439
0.34744772 -0.69410748 0.63047196
0.32411185 -0.6822585 0.6553433
0.30190784 -0.67706545 0.67114382
0.27980436 -0.65451514 0.70236704
0.25287113 -0.63014047 0.73415202
0.22220364 -0.60954587 0.76097265
0.16649846 -0.58978986 0.79020642
0.12845876 -0.57346969 0.80909262
0.10078191 -0.56523457 0.81875081
0.06597715 -0.55589094 0.82863278
0.62107908 -0.78086456 -0.067166369
0.62586315 -0.77874759 -0.042982793
0.63428784 -0.77282163 -0.020631692
0.64141031 -0.76718481 -0.0045029197
0.64618482 -0.7630974 0.011292639
0.65037338 -0.75912774 0.027194684
0.65398015 -0.75413528 0.059916123
0.65559427 -0.74976736 0.08969423
0.65148143 -0.748976 0.12085898
0.65223088 -0.74360957 0.14710433
0.64929685 -0.7417768 0.16787133
0.64631396 -0.741436 0.18041874
0.64124352 -0.74036256 0.20166811
0.62930466 -0.74230312 0.23013415
0.61700008 -0.74290636 0.25961711
0.59151241 -0.74376198 0.31133772
0.56767131 -0.73024205 0.38012608
0.52842609 -0.71452822 0.45849242
0.48929332 -0.70039779 0.51964889
0.42819952 -0.68313317 0.59158621
0.38639027 -0.67495362 0.62860175
0.3499598 -0.67353082 0.65106403
0.33619365 -0.6595581 0.67227742
0.3199869 -0.64128768 0.69739407
0.2905891 -0.62034036 0.72851617
0.25640714 -0.60045688 0.75743443
0.21752856 -0.58356018 0.78239303
0.16296927 -0.56616148 0.80802364
0.12584579 -0.5601289 0.81879085
0.09871632 -0.55174943 0.82814712
0.63310743 -0.77247557 -0.049562821
0.63495906 -0.77208149 -0.026779889
0.64015462 -0.76818276 -0.0098643101
0.64922927 -0.76058135 0.0041669133
0.65354807 -0.75663461 0.019467519
0.65732263 -0.7525239 0.040431826
0.66238982 -0.74585398 0.070296247
0.66533797 -0.73989647 0.099391141
0.66454021 -0.73613169 0.12843849
0.66536919 -0.73037398 0.15439457
0.66371569 -0.72855687 0.16937051
0.65919382 -0.72997139 0.18056931
0.65666236 -0.7275205 0.19876736
0.65207525 -0.72462024 0.2229874
0.64028852 -0.72369129 0.25749082
0.62086971 -0.71934355 0.31155362
0.60049283 -0.7107043 0.36648023
0.56661631 -0.6929056 0.4459011
0.53486295 -0.67510308 0.50809198
0.479978 -0.6647782 0.57244307
0.4287063 -0.65739817 0.61970844
0.3964036 -0.64652314 0.65182207
0.36858904 -0.64402168 0.67035676
0.34647312 -0.62997773 0.69504275
0.3224475 -0.60466213 0.72829343
0.29105952 -0.58732365 0.75520546
0.25294021 -0.57865211 0.77535991
0.20549358 -0.56340864 0.8002144
0.15900903 -0.55518935 0.81638282
0.120759 -0.54512343 0.82961299
0.6370158 -0.76952516 -0.045187382
0.64160047 -0.76684731 -0.017147637
0.64895878 -0.76081658 -0.0032613854
0.65574232 -0.75476946 0.018029529
0.66157137 -0.74918042 0.032434829
0.66534209 -0.74437134 0.056843732
0.67152288 -0.73665917 0.079939264
0.67566238 -0.72872895 0.11150997
0.67711938 -0.72268226 0.13870722
0.6810093 -0.71527617 0.15686405
0.67837819 -0.71303244 0.17716597
0.67654548 -0.71219637 0.18724996
0.6750178 -0.70953989 0.20224768
0.67076383 -0.70638875 0.22603279
0.66568307 -0.70186272 0.25348525
0.65008844 -0.69904877 0.29785203
0.62475302 -0.68782917 0.36956013
0.60018062 -0.67220554 0.4335008
0.56299619 -0.65764738 0.50053493
0.52146835 -0.64535922 0.55819552
0.47416383 -0.63631017 0.60850475
0.43411979 -0.63368432 0.64030007
0.40056988 -0.62648082 0.66862961
0.37634412 -0.61503177 0.69289322
0.35151637 -0.59913199 0.71935882
0.31607437 -0.58156242 0.74958798
0.28905192 -0.56458808 0.77310367
0.24036561 -0.55754984 0.79458325
0.20027675 -0.5413533 0.81659404
0.16055286 -0.53323542 0.83059181
0.64772514 -0.76132206 -0.028997594
0.6506095 -0.75936165 -0.008784296
0.65832624 -0.75261191 0.013485773
0.66773174 -0.7436574 0.033286612
0.67570789 -0.73529694 0.052509673
0.68233203 -0.7269103 0.077617151
0.68996428 -0.71636529 0.10377886
0.69224584 -0.71067569 0.12544229
0.69251433 -0.70605329 0.14802925