# vtk DataFile Version 2.0
Grain example
ASCII
DATASET UNSTRUCTURED_GRID
POINTS 900 float
10.579948 -5.6137456 -12.377936
10.660068 -5.164014 -12.651252
10.728364 -4.6987694 -12.936981
10.782831 -4.2157524 -13.225554
10.8453 -3.7152616 -13.481065
10.924416 -3.2539509 -13.653452
10.993599 -2.8055759 -13.792111
11.043981 -2.3535216 -13.941286
11.087945 -1.9033216 -14.095195
11.147351 -1.4495867 -14.221537
11.236735 -0.97094772 -14.323009
11.333701 -0.49757576 -14.406176
11.393785 -0.024971764 -14.466557
11.449868 0.50127372 -14.519204
11.513508 1.0658845 -14.561477
11.581731 1.6477453 -14.588046
11.647597 2.2332999 -14.61552
11.698251 2.8611661 -14.631122
11.701389 3.4652762 -14.671495
11.692566 4.0411301 -14.706387
11.685487 4.6040111 -14.734152
11.691939 5.2038557 -14.754272
11.695477 5.8237542 -14.7706
11.64095 6.4698436 -14.768324
11.569213 7.1051382 -14.753729
11.479041 7.8335885 -14.703557
11.382964 8.6368927 -14.63342
11.268867 9.5634455 -14.522475
11.166638 10.521942 -14.404605
11.08477 11.433956 -14.264849
11.116296 -5.724354 -11.898783
11.272643 -5.3003532 -12.11392
11.386277 -4.8499306 -12.359021
11.475871 -4.3436107 -12.624828
11.573763 -3.8336499 -12.858814
11.658289 -3.3801626 -13.019758
11.738928 -2.9324184 -13.145378
11.80216 -2.4799476 -13.283021
11.851424 -2.0203451 -13.426497
11.929818 -1.5362506 -13.554111
12.020097 -1.0529364 -13.668856
12.106016 -0.57331066 -13.778637
12.15799 -0.096885857 -13.856089
12.189895 0.424734 -13.930333
12.222557 1.0297678 -13.989144
12.267702 1.6128532 -14.031881
12.318462 2.206838 -14.065317
12.353421 2.8347211 -14.086113
12.344971 3.4293341 -14.133056
12.339439 4.0277996 -14.17441
12.337931 4.5902451 -14.210164
12.342318 5.1860363 -14.236263
12.354979 5.8123452 -14.257257
12.339576 6.4487276 -14.287199
12.319091 7.0737395 -14.306897
12.23072 7.7813454 -14.288698
12.147623 8.5838741 -14.22103
12.046283 9.5295979 -14.095646
11.947559 10.500361 -13.972953
11.847343 11.449224 -13.84289
11.59576 -5.8099257 -11.44015
11.825879 -5.3920616 -11.617762
12.030946 -4.955581 -11.801748
12.199478 -4.4555594 -12.003701
12.316294 -3.967397 -12.186469
12.404282 -3.49978 -12.348632
12.471575 -3.0444075 -12.500342
12.548995 -2.591148 -12.627495
12.642224 -2.1140225 -12.74012
12.714484 -1.6284886 -12.864934
12.778842 -1.137786 -12.998012
12.834011 -0.65827614 -13.118477
12.863984 -0.1827149 -13.24078
12.900604 0.3487921 -13.324109
12.926413 0.9564799 -13.395123
12.94987 1.56629 -13.466054
12.987586 2.1830536 -13.510857
12.99679 2.798829 -13.547578
12.989584 3.3954185 -13.59163
12.984214 4.0023972 -13.633556
12.981835 4.571329 -13.672872
12.989233 5.1672855 -13.705789
12.999383 5.7959274 -13.736519
12.982949 6.4302841 -13.76945
12.970553 7.0596788 -13.796804
12.958163 7.7129817 -13.814777
12.927716 8.5356142 -13.762274
12.854454 9.4975233 -13.64206
12.765069 10.464351 -13.512751
12.664586 11.421828 -13.383066
12.064829 -5.8777013 -10.966883
12.324459 -5.4564622 -11.125337
12.570294 -5.0023206 -11.28641
12.810859 -4.5160533 -11.435201
13.014319 -4.0805831 -11.539307
13.142558 -3.6185674 -11.673361
13.198593 -3.1597684 -11.820426
13.265713 -2.6827157 -11.966133
13.354703 -2.1950243 -12.092641
13.437251 -1.7112684 -12.212773
13.491481 -1.2290955 -12.339239
13.542456 -0.74537354 -12.464714
13.594909 -0.2498689 -12.574054
13.621512 0.28198021 -12.671106
13.641565 0.87269321 -12.75729
13.661509 1.4821043 -12.845411
13.668702 2.1309803 -12.926245
13.650183 2.7602372 -12.993835
13.635053 3.3613028 -13.050591
13.627359 3.9696983 -13.096899
13.624032 4.5528137 -13.134801
13.628734 5.1417238 -13.171426
13.628488 5.7714084 -13.206312
13.619495 6.4134411 -13.248583
13.615366 7.049447 -13.280213
13.623358 7.6944794 -13.28573
13.630054 8.5140677 -13.24154
13.591881 9.4712299 -13.159122
13.526759 10.439256 -13.057471
13.467277 11.386501 -12.933901
12.546339 -5.919423 -10.46865
12.802755 -5.4927186 -10.628605
13.062074 -5.0218458 -10.779031
13.304042 -4.578484 -10.891834
13.518603 -4.1491068 -10.979245
13.715756 -3.7084045 -11.073053
13.845611 -3.253397 -11.184099
13.96066 -2.7744116 -11.306201
14.05709 -2.2847985 -11.433529
14.136953 -1.7994899 -11.567691
14.203721 -1.3202252 -11.685232
14.263207 -0.82322936 -11.799763
14.322018 -0.31542912 -11.901132
14.346932 0.21149327 -12.003842
14.358635 0.7881094 -12.100544
14.375744 1.4015002 -12.199245
14.357732 2.0496578 -12.288842
14.317727 2.6925033 -12.39114
14.291185 3.3100292 -12.475834
14.276423 3.9267125 -12.542659
14.264459 4.529304 -12.597401
14.260205 5.1103677 -12.638341
14.255291 5.7420198 -12.676534
14.253404 6.3946019 -12.710188
14.26933 7.0426562 -12.732191
14.282136 7.6957188 -12.753022
14.287894 8.5263471 -12.70544
14.267728 9.4684649 -12.63421
14.238644 10.401287 -12.562732
14.170895 11.363688 -12.4694
12.937145 -5.9601122 -10.01405
13.213683 -5.5091578 -10.152546
13.496482 -5.0488536 -10.290941
13.755366 -4.6321416 -10.358035
13.993439 -4.2072327 -10.427498
14.213896 -3.7631827 -10.503266
14.407409 -3.3094958 -10.578601
14.563381 -2.838539 -10.676364
14.704383 -2.3598827 -10.784602
14.814608 -1.8899741 -10.898065
14.917488 -1.4062573 -11.0109
15.001018 -0.89422273 -11.120104
15.052961 -0.38904294 -11.22056
15.083766 0.13640985 -11.321015
15.088124 0.70166104 -11.420785
15.092235 1.3137377 -11.530362
15.054123 1.9655621 -11.639468
15.013589 2.6069613 -11.740534
14.972792 3.2383006 -11.839991
14.94575 3.8676359 -11.926936
14.93226 4.473201 -11.997304
14.897578 5.0732668 -12.080741
14.894147 5.7265573 -12.133475
14.907265 6.3826873 -12.156427
14.918743 7.0295168 -12.179861
14.928282 7.6878837 -12.192274
14.935776 8.5261306 -12.160332
14.932769 9.4653562 -12.095208
14.904609 10.405379 -12.026383
14.872194 11.343846 -11.959507
13.3168 -5.9796843 -9.5464528
13.603531 -5.5243154 -9.679221
13.879849 -5.0825555 -9.7775457
14.145274 -4.6698214 -9.8411967
14.413251 -4.2477389 -9.8976101
14.690155 -3.7984321 -9.947236
14.926656 -3.3487204 -9.992252
15.125222 -2.8916806 -10.062972
15.285084 -2.429576 -10.152613
15.421784 -1.956672 -10.249733
15.558269 -1.4614885 -10.341203
15.688955 -0.96260765 -10.426605
15.776913 -0.45992498 -10.532591
15.826458 0.054368693 -10.63245
15.82974 0.62301335 -10.733709
15.806988 1.2183572 -10.845842
15.759495 1.8711593 -10.969458
15.714197 2.5201321 -11.082203
15.670144 3.1488318 -11.185365
15.625716 3.7877418 -11.289844
15.587741 4.406291 -11.385389
15.563007 5.0250527 -11.454832
15.563336 5.6868843 -11.515225
15.568095 6.3502076 -11.567009
15.570194 7.0076111 -11.620789
15.570704 7.7060089 -11.632193
15.566365 8.5374315 -11.623035
15.572837 9.487038 -11.583641
15.555277 10.418333 -11.529176
15.519132 11.359491 -11.471371
13.659541 -5.9867598 -9.1035463
13.965553 -5.528584 -9.2203951
14.243049 -5.116587 -9.2762051
14.52115 -4.7024642 -9.3288312
14.81309 -4.2654109 -9.3749332
15.113684 -3.8080492 -9.4146131
15.375354 -3.3630202 -9.4523302
15.598383 -2.9162547 -9.4971233
15.789069 -2.471414 -9.5602793
15.973727 -1.9979353 -9.6231697
16.147857 -1.5058886 -9.6914014
16.308578 -1.0116993 -9.7626588
16.425105 -0.51676289 -9.851686
16.509229 -0.016886229 -9.9511379
16.532755 0.54068197 -10.05521
16.509318 1.1073933 -10.16355
16.459963 1.7592352 -10.295219
16.406521 2.4143053 -10.421558
16.358033 3.0525085 -10.540259
16.314637 3.6934452 -10.641748
16.276134 4.3411744 -10.73336
16.240547 4.9808033 -10.824073
16.22901 5.6551892 -10.904773
16.227371 6.3272109 -10.976516
16.218498 7.0006244 -11.038647
16.202979 7.7408233 -11.08628
16.188013 8.5557785 -11.114733
16.192622 9.5110409 -11.080073
16.197018 10.44141 -11.042733
16.167239 11.387853 -10.991043
13.948285 -5.989894 -8.6696054
14.273297 -5.5517024 -8.7510999
14.57072 -5.1384474 -8.8001881
14.865497 -4.7137518 -8.8451054
15.171543 -4.262381 -8.884306
15.477546 -3.8055909 -8.9220065
15.753853 -3.3634715 -8.9520648
16.008221 -2.9268501 -8.9849553
16.226797 -2.4800853 -9.01238
16.444283 -2.008111 -9.045258
16.632138 -1.5347708 -9.1002111
16.810579 -1.0539868 -9.1615022
16.965993 -0.5631338 -9.2347844
17.098515 -0.076131346 -9.3113606
17.146939 0.46139007 -9.4056209
17.139387 1.0265555 -9.5128095
17.115615 1.6509324 -9.6279556
17.086538 2.3032523 -9.7575131
17.051738 2.9582233 -9.8926178
17.018374 3.6286091 -10.007737
16.966275 4.2860265 -10.120471
16.913729 4.9462546 -10.23226
16.883238 5.6283142 -10.333241
16.877528 6.3135495 -10.404739
16.863967 7.0006069 -10.46591
16.845369 7.7717173 -10.506714
16.824573 8.5788775 -10.546484
16.818874 9.5341507 -10.551419
16.817114 10.467254 -10.536389
16.816953 11.40245 -10.491236
14.174074 -5.9875059 -8.2548819
14.480226 -5.5708906 -8.3064772
14.778681 -5.1556084 -8.3525755
15.095201 -4.7129774 -8.3925985
15.413961 -4.2537711 -8.4346456
15.728046 -3.7997491 -8.4705957
16.023351 -3.3568516 -8.4979584
16.305472 -2.91627 -8.520779
16.558577 -2.4688796 -8.5303462
16.792735 -2.0121576 -8.5441212
17.004057 -1.5456304 -8.5796201
17.200749 -1.0690404 -8.6321828
17.383177 -0.59010798 -8.6873804
17.550985 -0.11328657 -8.7519723
17.648759 0.41219437 -8.8342419
17.688756 0.98384175 -8.9229095
17.689147 1.5795136 -9.0419075
17.702993 2.2396948 -9.1620219
17.698691 2.8977213 -9.2734714
17.681477 3.5724321 -9.393746
17.640083 4.2316344 -9.5183595
17.593276 4.8962088 -9.6308569
17.556598 5.5821731 -9.738813
17.525897 6.3053424 -9.8244651
17.509676 7.00434 -9.8807032
17.490958 7.8029752 -9.9201394
17.469525 8.6140823 -9.9605976
17.460719 9.5383863 -9.9718353
17.458522 10.485574 -9.9623628
17.457566 11.427323 -9.9477666
14.353474 -6.0040774 -7.8441783
14.658474 -5.5943445 -7.885844
14.976665 -5.1583882 -7.9226699
15.300975 -4.7107786 -7.9558696
15.625053 -4.2568329 -7.9929229
15.940418 -3.8031117 -8.0294584
16.23678 -3.3573213 -8.0592843
16.526001 -2.9030478 -8.0754643
16.787456 -2.4550858 -8.0782117
17.028754 -2.0020458 -8.0915378
17.269038 -1.5392583 -8.1152878
17.495108 -1.067554 -8.1629698
17.707659 -0.5872694 -8.2250074
17.886381 -0.11527828 -8.2980459
18.003457 0.40537495 -8.3693772
18.085482 0.96641651 -8.4376406
18.168807 1.5569023 -8.5007947
[...]
POINT_DATA 900
VECTORS normals float
0.48643643 -0.56205369 -0.66893591
0.49914871 -0.52478819 -0.68952731
0.51210712 -0.49533991 -0.70170127
0.52773476 -0.45476668 -0.71741431
0.54219045 -0.4124557 -0.73205861
0.55834458 -0.36949793 -0.74278032
0.57373659 -0.33324504 -0.7481805
0.58448473 -0.30714031 -0.75102758
0.59908185 -0.27953559 -0.75030713
0.60334264 -0.26347166 -0.75270203
0.61316128 -0.24074031 -0.75238112
0.61979327 -0.21279109 -0.75536498
0.62369282 -0.18507134 -0.75944444
0.62756422 -0.16188504 -0.76154868
0.63175528 -0.1402485 -0.76237499
0.6353514 -0.11162306 -0.76411314
0.63516101 -0.092142304 -0.76686393
0.63563564 -0.06518925 -0.76923189
0.63535578 -0.043992722 -0.77096542
0.63457888 -0.023410628 -0.77250346
0.62874548 -0.013747419 -0.77748964
0.62253772 -0.0036445108 -0.78258131
0.61521114 0.011203963 -0.78828277
0.60511376 0.030482949 -0.79555523
0.58992245 0.052829971 -0.80572979
0.57696161 0.074750755 -0.81334349
0.5544457 0.12575483 -0.82266378
0.51103973 0.17723102 -0.84108713
0.44197498 0.2572577 -0.85934661
0.37606687 0.32872671 -0.86632122
0.49855839 -0.56130101 -0.66059118
0.51392458 -0.53211707 -0.67285433
0.52612847 -0.50154781 -0.68675951
0.54370977 -0.45819817 -0.70316009
0.5622691 -0.40871384 -0.71889252
0.57581757 -0.36526536 -0.73144743
0.58800732 -0.33711963 -0.73525352
0.60043418 -0.29968692 -0.741395
0.60756684 -0.27473558 -0.74524016
0.61396918 -0.25756166 -0.74612589
0.61873797 -0.2372594 -0.74891341
0.62565354 -0.21647095 -0.74946513
0.63129523 -0.18829549 -0.75233712
0.63782135 -0.16278643 -0.7527845
0.64006407 -0.13654333 -0.7560912
0.63951473 -0.11349636 -0.76035484
0.64026388 -0.094854755 -0.76227602
0.63699605 -0.071633881 -0.76753151
0.63573264 -0.048778249 -0.77036659
0.63555895 -0.029747167 -0.77147905
0.63157148 -0.019921185 -0.77506168
0.62827541 -0.012620305 -0.77788864
0.62297072 -0.003344703 -0.782238
0.61505836 0.0096027428 -0.78842311
0.60215456 0.030566931 -0.79779418
0.58585534 0.055023986 -0.80854553
0.57022168 0.088889164 -0.81666759
0.53208997 0.13557539 -0.83576287
0.47929133 0.19462535 -0.85580418
0.4251816 0.2727361 -0.8630386
0.51651108 -0.56752826 -0.64119261
0.5324473 -0.53976178 -0.65204071
0.54605121 -0.50770838 -0.66637848
0.5659799 -0.4612437 -0.68331618
0.57895461 -0.4163566 -0.70104118
0.59489285 -0.36931529 -0.71393888
0.60366728 -0.32996578 -0.72574679
0.61171125 -0.29792213 -0.73283815
0.61849517 -0.27400751 -0.73646697
0.62449927 -0.25348348 -0.73874677
0.62683459 -0.2384195 -0.74177796
0.63263652 -0.21381816 -0.74434725
0.64193346 -0.18688054 -0.74363774
0.6431515 -0.1641385 -0.74794031
0.64739766 -0.14048958 -0.74909208
0.64691608 -0.1194359 -0.75314982
0.64524742 -0.10119504 -0.75724192
0.64252427 -0.079923661 -0.7620858
0.63918744 -0.05456291 -0.76711296
0.63821861 -0.035892816 -0.76901802
0.63574681 -0.026029731 -0.77145865
0.63178813 -0.018337268 -0.77492419
0.62837648 -0.012598388 -0.77780736
0.62309379 -0.008819635 -0.7820974
0.61376895 0.0083972536 -0.78944105
0.60014848 0.024640699 -0.799509
0.58418705 0.062079133 -0.80924142
0.55586936 0.10285997 -0.82488125
0.52976962 0.14756056 -0.83520658
0.49658896 0.20456839 -0.84353493
0.54098108 -0.57747872 -0.61143912
0.55966853 -0.54017393 -0.62847693
0.57782519 -0.50690463 -0.63966065
0.59427228 -0.46479925 -0.65635517
0.6100061 -0.43024208 -0.66542041
0.61489315 -0.38670031 -0.68729126
0.62317953 -0.3429601 -0.70286958
0.62674359 -0.30496311 -0.71707041
0.62707679 -0.27861689 -0.72742513
0.6334282 -0.25297558 -0.73128111
0.63895199 -0.23069226 -0.7338402
0.64226058 -0.2101289 -0.73712088
0.64926459 -0.18415328 -0.73793161
0.65109187 -0.16267947 -0.74136008
0.65152098 -0.14058319 -0.74549097
0.65115703 -0.12406204 -0.74873435
0.64987131 -0.10675105 -0.75251013
0.64806566 -0.087456901 -0.75654623
0.64401545 -0.064001958 -0.76233054
0.64023812 -0.044094885 -0.7669099
0.63808859 -0.032262995 -0.76928672
0.63435992 -0.023242251 -0.77268835
0.63110715 -0.019715815 -0.77544507
0.62631002 -0.019966698 -0.77931835
0.61950356 -0.0092809826 -0.78493898
0.61358208 0.0078674613 -0.78959175
0.60018159 0.041923387 -0.79876435
0.57676381 0.08549225 -0.81242513
0.55281718 0.12983592 -0.82312563
0.52998129 0.17264525 -0.83024903
0.5756181 -0.58917222 -0.56704488
0.5957616 -0.5508446 -0.58449836
0.60880087 -0.51071697 -0.60706646
0.62146119 -0.48044626 -0.6188355
0.63344663 -0.44261449 -0.63469503
0.6378665 -0.40628902 -0.65425955
0.64399275 -0.35948984 -0.67530763
0.64445147 -0.32969646 -0.68991489
0.64669079 -0.29268111 -0.70436411
0.64650908 -0.26244953 -0.71634228
0.65031875 -0.23515603 -0.72234837
0.6547603 -0.20567113 -0.72731584
0.65762347 -0.18288805 -0.73081005
0.65968156 -0.16363461 -0.7335148
0.66247176 -0.15098219 -0.73371353
0.66021086 -0.13188855 -0.73940992
0.65655469 -0.11404366 -0.74560713
0.65416878 -0.094307245 -0.7504461
0.65065772 -0.073743687 -0.75578198
0.64797896 -0.05328571 -0.75979201
0.64237647 -0.036065337 -0.76554018
0.63993384 -0.029528662 -0.76786245
0.63631162 -0.02746581 -0.77094303
0.62866787 -0.026884875 -0.77720905
0.62326929 -0.021090003 -0.78172285
0.62239344 -0.00077562003 -0.78270416
0.61116301 0.031433867 -0.79088033
0.59587935 0.067297634 -0.80024923
0.57444178 0.10706885 -0.81151273
0.54668785 0.14799502 -0.82415403
0.60308707 -0.59522281 -0.53103276
0.61935177 -0.56319936 -0.54700078
0.63134318 -0.5219467 -0.57356554
0.64057241 -0.49461931 -0.58738295
0.65288035 -0.46323036 -0.59930366
0.6559294 -0.43102078 -0.61965935
0.66484916 -0.39288136 -0.63531082
0.67001153 -0.35144205 -0.65389069
0.66526613 -0.31522015 -0.67679926
0.66536556 -0.28480733 -0.69005322
0.66479036 -0.25179188 -0.70331688
0.66711339 -0.2243971 -0.71035601
0.66749621 -0.19093895 -0.719716
0.66756942 -0.16757375 -0.72544477
0.66974545 -0.14720452 -0.72785428
0.6711499 -0.1318499 -0.72950217
0.66875523 -0.12209596 -0.73338872
0.66444241 -0.10576031 -0.73981824
0.66160372 -0.086635932 -0.74483202
0.65607867 -0.064230424 -0.75195428
0.65145559 -0.048975817 -0.75710434
0.64449097 -0.039615605 -0.76358496
0.64094097 -0.033563963 -0.76685601
0.63759008 -0.031772641 -0.76972034
0.63533328 -0.027624745 -0.7717438
0.63227323 -0.012317782 -0.77464755
0.62413333 0.021050268 -0.78103424
0.60921277 0.050117236 -0.79142155
0.59001075 0.075218506 -0.803884
0.56404104 0.10959369 -0.81844177
0.62330792 -0.606158 -0.494024
0.64160741 -0.56995145 -0.51331791
0.65467648 -0.54113675 -0.52779705
0.6629703 -0.51323448 -0.5450328
0.6706433 -0.48664515 -0.55983396
0.6811696 -0.4541009 -0.57428246
0.68668517 -0.41791439 -0.59482017
0.69480037 -0.37649342 -0.61278475
0.69411144 -0.3453025 -0.63164507
0.68866841 -0.31265719 -0.6542028
0.68649671 -0.28234671 -0.67007656
0.68274325 -0.24782996 -0.68734414
0.68110462 -0.20621963 -0.70254535
0.67999725 -0.17750302 -0.71140453
0.68009843 -0.15271542 -0.71703844
0.68054145 -0.13227664 -0.72067068
0.68088505 -0.11971691 -0.72253955
0.67786019 -0.11664005 -0.72587923
0.67222428 -0.099001704 -0.73369829
0.66891273 -0.079627261 -0.73906377
0.6626665 -0.063437698 -0.746223
0.65696353 -0.049428498 -0.7523003
0.65252505 -0.042789275 -0.75655809
0.65035812 -0.037160697 -0.75871826
0.64801054 -0.030775131 -0.76100935
0.64523481 -0.014445137 -0.76384775
0.63702238 0.0083042692 -0.77080058
0.62194196 0.031235556 -0.78244012
0.60342293 0.049638631 -0.79587485
0.58002534 0.076951724 -0.81095563
0.64294565 -0.61319519 -0.45892543
0.66319757 -0.58111824 -0.47166785
0.67758142 -0.55524108 -0.48227664
0.68968526 -0.53220409 -0.49101227
0.69879189 -0.50823713 -0.50337354
0.70815429 -0.47853853 -0.5191516
0.71601069 -0.44638039 -0.53672455
0.72298813 -0.40709438 -0.55817769
0.72134754 -0.38199556 -0.57769985
0.72135364 -0.35306038 -0.59581649
0.71827793 -0.3198912 -0.61785632
0.7113915 -0.27875873 -0.64514781
0.70631586 -0.23370548 -0.66820629
0.70286776 -0.19515222 -0.6840267
0.6985229 -0.16245021 -0.69690436
0.69375425 -0.13840343 -0.70678818
0.68987239 -0.12271775 -0.71345388
0.68808223 -0.11974722 -0.7156839
0.68229393 -0.11454599 -0.72204861
0.67883804 -0.096257113 -0.72795157
0.67398381 -0.07823521 -0.73459177
0.66905085 -0.056262422 -0.74108401
0.66778594 -0.046082094 -0.74292555
0.66591539 -0.036184772 -0.74514922
0.66399529 -0.030642052 -0.74710864
0.66224886 -0.020875074 -0.74899311
0.65615046 -0.0051928269 -0.75461222
0.63743947 0.018110799 -0.77028756
0.62421911 0.031386414 -0.7806186
0.60080508 0.053992375 -0.79757011
0.6669087 -0.62196236 -0.41036033
0.68290886 -0.59658926 -0.42156463
0.70036805 -0.57014411 -0.42944184
0.71099343 -0.54586305 -0.44330788
0.72049775 -0.52105012 -0.45759126
0.72948248 -0.49739424 -0.46952559
0.73954849 -0.46970371 -0.48212702
0.75036538 -0.44285581 -0.49074487
0.75145847 -0.41391627 -0.51379324
0.75400001 -0.38666245 -0.53101425
0.75237737 -0.35473717 -0.5550584
0.74495705 -0.31976366 -0.58548288
0.74281744 -0.27842551 -0.60885259
0.73855068 -0.23458485 -0.63207028
0.72656418 -0.19206319 -0.65970919
0.7132166 -0.1556997 -0.68343229
0.7080384 -0.130025 -0.69410023
0.70053605 -0.12437564 -0.70269477
0.6950534 -0.11788244 -0.7092281
0.69069831 -0.10570204 -0.71537607
0.68637588 -0.090659001 -0.72157404
0.68357025 -0.065523792 -0.72693765
0.6787001 -0.049137897 -0.73276984
0.67804403 -0.036771724 -0.7341009
0.67717078 -0.032704647 -0.73509873
0.67483371 -0.027504142 -0.73745711
0.67098646 -0.015687469 -0.74130363
0.65939126 0.0012758537 -0.75179887
0.64467059 0.015474673 -0.76430384
0.62757142 0.031150429 -0.77793558
0.68160654 -0.63077831 -0.37085206
0.69781926 -0.60482223 -0.38371651
0.71193648 -0.58125512 -0.39406716
0.72745434 -0.55771841 -0.39970034
0.73878961 -0.53293684 -0.41251453
0.74921083 -0.51218862 -0.41993565
0.75690526 -0.4895111 -0.43298187
0.76603175 -0.46399657 -0.44486239
0.77230002 -0.43711624 -0.46095778
0.77466268 -0.41695575 -0.47544257
0.77816601 -0.39625766 -0.48727562
0.77843152 -0.36691622 -0.50932981
0.77612253 -0.32233144 -0.54197441
0.77526006 -0.27198824 -0.57008266
0.76513289 -0.22656346 -0.6026945
0.75673514 -0.18251318 -0.62772675
0.7380092 -0.14572636 -0.6588674
0.72896471 -0.13400691 -0.67130663
0.71686239 -0.12549878 -0.68582678
0.70795505 -0.11264228 -0.69721687
0.70413636 -0.094861552 -0.7036997
0.69812197 -0.076270512 -0.71190486
0.69484215 -0.056562445 -0.7169345
0.68885193 -0.040156641 -0.72378896
0.68720417 -0.035739643 -0.72558467
0.68658914 -0.031246195 -0.72637389
0.68485085 -0.022850796 -0.7283249
0.67688479 -0.0091001179 -0.73603272
0.66742363 -0.00095749311 -0.74467763
0.6519083 0.014065269 -0.75816735
0.69085282 -0.63911639 -0.33801276
0.71043867 -0.61084872 -0.3494864
0.72516552 -0.58775149 -0.35872434
0.73846232 -0.56528238 -0.36759929
0.74833612 -0.54623176 -0.37632953
0.76059197 -0.52126329 -0.38701994
0.77151234 -0.49790502 -0.39605466
0.78055809 -0.47729004 -0.40363757
0.7882598 -0.4614608 -0.40706316
0.78949961 -0.44016613 -0.4277197
0.7934535 -0.41671868 -0.44359564
0.79477258 -0.39334647 -0.46218514
0.79764756 -0.34902304 -0.49187528
0.79883035 -0.29041003 -0.52681314
0.79641325 -0.25095452 -0.5502252
0.79087822 -0.20220162 -0.57760379
0.78379164 -0.17333681 -0.59634304
0.76647816 -0.15514728 -0.62324999
0.75181963 -0.13739791 -0.64489461
0.73975292 -0.1278099 -0.66062867
0.73037231 -0.10569796 -0.67482163
0.72108136 -0.089186819 -0.68708616
0.71079924 -0.067640079 -0.70013517
0.70296752 -0.047274413 -0.70964906
0.69540627 -0.036622091 -0.71768303
0.69561683 -0.034496223 -0.7175843
0.6944509 -0.028049967 -0.71899315
0.69139921 -0.018700618 -0.72223086
0.68606328 -0.015252894 -0.72738197
0.67591531 -0.0033386714 -0.73697174
0.69425993 -0.64441799 -0.32051302
0.7151671 -0.61549391 -0.33121483
0.72753143 -0.59547683 -0.34074237
0.74215807 -0.56895829 -0.35424265
0.75554572 -0.54935379 -0.35687683
0.76883195 -0.52791887 -0.36083113
0.78021571 -0.50624872 -0.36739035
0.79014443 -0.48432569 -0.37563335
0.79518882 -0.46976178 -0.38340397
0.79808181 -0.45473247 -0.39532746
0.80181844 -0.4331634 -0.41165114
0.8054516 -0.40917701 -0.42874455
0.81481598 -0.36561854 -0.44988665
0.82305281 -0.31691864 -0.47132436
0.82484813 -0.27087591 -0.49623765
0.8228937 -0.22807042 -0.52041316
0.81211361 -0.19861796 -0.54865508
0.80244071 -0.17788384 -0.56960183
0.78651592 -0.15415403 -0.59802111
0.77584255 -0.13865173 -0.61550307
0.76512691 -0.12063381 -0.63247789
0.75801142 -0.10382731 -0.64392435
0.74216443 -0.080856072 -0.66532267
0.72781159 -0.06109413 -0.68305037
0.7194983 -0.047898983 -0.69284045
0.71447052 -0.037252871 -0.6986731
0.70970491 -0.031019347 -0.70381584
0.70746386 -0.024544136 -0.70632321
0.70153896 -0.023104664 -0.71225645
0.69571642 -0.020225734 -0.71803174
0.69810106 -0.64528865 -0.31025389
0.7153621 -0.62117295 -0.32000194
0.7297957 -0.59840494 -0.33062027
0.74725342 -0.57329879 -0.33606669
0.76307281 -0.54873908 -0.34147519
0.77440761 -0.5283672 -0.34802435
0.78399531 -0.50810696 -0.3566212
0.79305305 -0.48847973 -0.36394287
0.79797985 -0.47554863 -0.37024541
0.80173413 -0.46366879 -0.37713874
0.80893925 -0.4420214 -0.38760078
0.81471419 -0.41711493 -0.40281003
0.825208 -0.38084473 -0.41711995
0.83632589 -0.32930717 -0.43831015
0.84229957 -0.27721447 -0.4622592
0.84693636 -0.23811161 -0.47539633
0.83782902 -0.21820533 -0.50042878
0.83229264 -0.19699396 -0.51815281
0.8268345 -0.18136224 -0.53240253
0.8172791 -0.16005509 -0.55356773
0.80983899 -0.14038639 -0.5696073
0.79334107 -0.12236719 -0.59635243
0.78230459 -0.10142121 -0.61458382
0.76701761 -0.081841989 -0.636385
0.75450314 -0.066012054 -0.65296816
0.74583349 -0.047501402 -0.66443662
0.73726418 -0.038481059 -0.67450777
0.73012532 -0.0327432 -0.68252831
0.72346632 -0.029877116 -0.68971287
0.71755718 -0.029059049 -0.69589314
0.69901888 -0.65045569 -0.2971195
0.71802592 -0.6246974 -0.30690704
0.73481464 -0.59976885 -0.31674086
0.75230665 -0.57481896 -0.32189731
0.76509598 -0.55339026 -0.32922237
0.7771407 -0.5319935 -0.33620715
0.78913797 -0.50861147 -0.34434815
0.79613955 -0.49175738 -0.35261381
0.80171377 -0.47859996 -0.35804623
0.8079935 -0.46518835 -0.36158859
0.8156808 -0.44992429 -0.36363851
0.82262789 -0.42455556 -0.37820091
0.83392406 -0.38829955 -0.39216594
0.84610382 -0.34200915 -0.40882523
0.85510298 -0.2915572 -0.4287112
0.85877417 -0.25049435 -0.44694464
0.85711526 -0.2302751 -0.46078934
0.85431679 -0.21347693 -0.47388862
0.85149341 -0.19700174 -0.48595193
0.84718342 -0.17733761 -0.50083093
0.83245274 -0.1570983 -0.53135917
0.82462 -0.13576424 -0.54915383
0.81603784 -0.11310841 -0.56682337
0.80643039 -0.099855698 -0.58283692
0.79422908 -0.081393369 -0.60214225
0.77975387 -0.065035071 -0.62269924
0.77053587 -0.054924799 -0.63502578
0.75945439 -0.044374772 -0.64904538
0.75165423 -0.038647888 -0.65842407
0.74452499 -0.036159565 -0.6666146
0.70405451 -0.65079778 -0.28419973
0.72605531 -0.62107989 -0.29513294
0.7424465 -0.5968247 -0.30425891
0.75750076 -0.57571843 -0.30780007
0.77026093 -0.5532882 -0.31712817
0.78157969 -0.53192205 -0.32587132
0.79201464 -0.51023774 -0.33521672
0.79795403 -0.49514431 -0.34365894
0.80566377 -0.4803809 -0.34661228
0.81423516 -0.4650006 -0.34755655
0.81985837 -0.45256416 -0.35073913
0.82811843 -0.42661405 -0.36362111
0.84082786 -0.39593342 -0.36911412
0.8523234 -0.34857401 -0.38992433
0.86080858 -0.30013586 -0.41100736
0.86798843 -0.2633439 -0.42100603
0.87151572 -0.23834445 -0.4285467
0.87194344 -0.22441769 -0.43514519
0.86965795 -0.20708041 -0.44812136
0.8622707 -0.18888884 -0.46990452
0.85509375 -0.16906115 -0.4901357
0.85049465 -0.14516114 -0.50555622
0.84506182 -0.12961862 -0.51871913
0.83847825 -0.12140767 -0.53123855
0.8239705 -0.10428066 -0.55695436
0.81611538 -0.084993453 -0.57160458
0.79941495 -0.068028247 -0.59691531
0.79246678 -0.060353739 -0.6069216
0.77919005 -0.048099407 -0.62493944
0.76907061 -0.041335975 -0.63782579
0.70658003 -0.65367639 -0.27101999
0.73047338 -0.62345202 -0.27877628
0.74862897 -0.59739997 -0.28752033
0.76228328 -0.57644597 -0.29433697
0.7702208 -0.55867138 -0.30764625
0.78197767 -0.53689375 -0.31663233
0.7936347 -0.51364869 -0.32605059
0.8034537 -0.49386045 -0.33251167
0.81177474 -0.47839556 -0.33490217
0.81806789 -0.46651609 -0.33634455
0.82427315 -0.45279926 -0.33992148
0.83301086 -0.43108345 -0.34678519
0.84274262 -0.40080658 -0.35935909
0.85698089 -0.35036794 -0.37792335
0.86732879 -0.30025569 -0.39697265
0.87393918 -0.26575858 -0.4069431
0.88098693 -0.24345629 -0.40569824
0.88131158 -0.22945121 -0.41308841
0.88153068 -0.21649359 -0.41956427
0.87556795 -0.20092242 -0.4393301
0.87232345 -0.17614403 -0.45609767
0.86986548 -0.15759167 -0.46743868
0.86702778 -0.14249917 -0.47744823
0.85487627 -0.13135331 -0.50192914
0.84857658 -0.1156824 -0.51627064
0.83991346 -0.099872256 -0.53345189
0.83081039 -0.085015192 -0.55002411
0.82304498 -0.074020705 -0.56313222
0.80907306 -0.061958867 -0.58443296
0.79721154 -0.052877644 -0.60137984
0.712343 -0.65426468 -0.25397868
0.73504492 -0.62574318 -0.26106406
0.75625293 -0.59780791 -0.26590826
0.7689712 -0.57752066 -0.27414079
0.77730139 -0.56136864 -0.28402077
0.78679325 -0.54360172 -0.29232438
0.79854369 -0.51953931 -0.303985
0.80829965 -0.49652188 -0.3164138
0.81736386 -0.47784396 -0.32184075
0.82401539 -0.46638684 -0.3216861
0.8281259 -0.45527814 -0.32700047
0.83523256 -0.43478561 -0.33667201
0.84688426 -0.4036787 -0.3461655
0.86241224 -0.35336592 -0.36246056
0.87461281 -0.30290055 -0.37855475
0.88126188 -0.26735535 -0.38974172
0.88859604 -0.24037984 -0.39065921
0.8922644 -0.23071531 -0.38811685
0.89225482 -0.22202818 -0.39317276
0.89057681 -0.20982118 -0.40354432
0.89031246 -0.18879532 -0.41436706
0.88834377 -0.17173178 -0.42585624
0.88011562 -0.1574231 -0.44790006
0.87053136 -0.14649007 -0.46980401
0.86629985 -0.12970827 -0.48239023
0.86228062 -0.11162689 -0.49397527
0.85433163 -0.10193568 -0.50963378
0.84208187 -0.090316969 -0.53173393
0.83047946 -0.077488775 -0.55163335
0.82215227 -0.061292258 -0.5659584
0.7148015 -0.66028677 -0.23039141
0.73848703 -0.6309853 -0.23768561
0.75905236 -0.60279288 -0.24592736
0.77095773 -0.584075 -0.25393025
0.78303016 -0.56257318 -0.26528322
0.79392426 -0.54399141 -0.27158352
0.80575723 -0.52168664 -0.28035397
0.81627802 -0.50136685 -0.2869172
0.82576694 -0.48108295 -0.29439456
0.82751624 -0.47346559 -0.3017403
0.83145793 -0.46077627 -0.31042382
0.84028868 -0.43772872 -0.31985699
0.85383399 -0.40514499 -0.32684101
0.86870633 -0.35528394 -0.34514147
0.88154009 -0.30497521 -0.36038478
0.89050203 -0.27117658 -0.36533464
0.89485532 -0.24329377 -0.374222
0.89837312 -0.23054649 -0.37386368
0.89984668 -0.2264153 -0.37284321
0.90032039 -0.21496565 -0.37843489
0.90033577 -0.19562249 -0.38875101
0.89753209 -0.17825845 -0.40331138
0.89312171 -0.16654506 -0.41784729
0.88641188 -0.1574692 -0.43529006
0.88208977 -0.14074586 -0.44956449
0.87934598 -0.12524272 -0.45941801
0.86995808 -0.11430062 -0.47969605
0.86282859 -0.10677473 -0.49409107
0.85265899 -0.091226081 -0.51444189
0.84800562 -0.076687904 -0.5244096
0.72180386 -0.66262615 -0.19981434
0.74789655 -0.62862262 -0.21327061
0.76204412 -0.60798836 -0.22279791
0.77301588 -0.58963249 -0.23405122
0.7869922 -0.56745169 -0.24216083
0.79915442 -0.54651862 -0.250339
0.81069872 -0.52749802 -0.25399493
0.82124956 -0.50823587 -0.25931732
0.82917937 -0.48922071 -0.27041573
0.83209015 -0.47958 -0.27861983
0.83604409 -0.46649175 -0.2888178
0.84645838 -0.44469954 -0.29283193
0.86342617 -0.40438374 -0.30161073
0.87941269 -0.35452354 -0.31772061
0.89121773 -0.31097093 -0.33019393
0.90221282 -0.26691693 -0.33877335
0.9072696 -0.24389241 -0.34260527
0.90913642 -0.23319633 -0.34509483
0.91023277 -0.22551331 -0.34730399
0.91145216 -0.21808946 -0.34884372
0.91204842 -0.20415471 -0.35565227
0.91057304 -0.19029588 -0.36693898
0.90846588 -0.17883769 -0.37776557
0.90248231 -0.16392846 -0.39831287
0.89774661 -0.15330299 -0.41297604
0.89305623 -0.13437697 -0.42941053
0.88691283 -0.12271994 -0.44533745
0.87949117 -0.11353992 -0.4621731
0.87363717 -0.10057675 -0.47606975
0.8722813 -0.09013514 -0.48062562
0.72989508 -0.66152763 -0.17214635
0.75553241 -0.63183921 -0.17306067