# vtk DataFile Version 2.0
Grain example
ASCII
DATASET UNSTRUCTURED_GRID
POINTS 900 float
1.0371711 -6.2714172 -14.893828
1.2019233 -5.4729727 -15.589378
1.3246431 -4.6438553 -16.307204
1.447643 -3.8148896 -17.02535
1.646453 -2.9540888 -17.754714
1.7337523 -2.2735125 -18.287658
1.8002888 -1.6532935 -18.757262
1.8500884 -1.0273272 -19.219147
1.8803812 -0.43782531 -19.632059
1.9104049 0.030118942 -19.875102
1.9342634 0.4853985 -20.084887
1.9670382 0.9229456 -20.277756
1.9830193 1.3526016 -20.435915
2.0171499 1.7759628 -20.5406
2.0368578 2.2095974 -20.617437
2.0268235 2.6293997 -20.680252
2.0187276 3.0122901 -20.715135
1.9928157 3.4191546 -20.714403
1.9234795 3.8166391 -20.705786
1.862905 4.2137533 -20.695369
1.7987957 4.546203 -20.59797
1.7483733 4.8842298 -20.438888
1.7116511 5.2373646 -20.256871
1.6642066 5.595063 -20.073379
1.6307417 5.958116 -19.880849
1.603809 6.3188822 -19.684972
1.6001833 6.6908009 -19.466342
1.6084845 7.0712737 -19.235638
1.6110054 7.4494545 -19.010504
1.6230044 7.8445957 -18.77863
1.1614208 -7.0522903 -14.202236
1.4135394 -6.361967 -14.829845
1.6093438 -5.5814061 -15.535323
1.8089132 -4.7441406 -16.257397
2.0923122 -3.8437681 -17.004016
2.2274997 -3.1408229 -17.555424
2.363333 -2.5086046 -18.057268
2.5093321 -1.8548081 -18.561996
2.6103377 -1.2648794 -18.98092
2.672252 -0.7661578 -19.286851
2.7093961 -0.29105886 -19.555419
2.727321 0.23320879 -19.831098
2.7427562 0.76396268 -20.081327
2.7742091 1.2977236 -20.272983
2.7802419 1.8167752 -20.413284
2.7774742 2.3049713 -20.502761
2.7488311 2.7449701 -20.519962
2.6924946 3.1645765 -20.516816
2.6181499 3.5781123 -20.508556
2.5503006 3.997721 -20.494191
2.4930508 4.4226566 -20.45705
2.4314208 4.839171 -20.387008
2.3927865 5.1954297 -20.20211
2.3527993 5.5545093 -20.014977
2.3232458 5.9250387 -19.813369
2.3179024 6.3133054 -19.598207
2.3144286 6.7059879 -19.372973
2.3131894 7.0974574 -19.150311
2.3203733 7.4785375 -18.918319
2.333835 7.8895619 -18.682702
1.2679695 -7.7644136 -13.53378
1.5569595 -7.135315 -14.144026
1.8883356 -6.4298134 -14.775942
2.2377968 -5.6127189 -15.488524
2.5686118 -4.7372275 -16.247603
2.7792038 -4.0041222 -16.826065
2.9327552 -3.3510823 -17.327941
3.1269035 -2.687125 -17.834445
3.3221183 -2.03455 -18.314319
3.4104662 -1.4402064 -18.688102
3.4519403 -0.86751989 -19.033719
3.4886681 -0.31117446 -19.338197
3.5116154 0.25161685 -19.627153
3.5277808 0.81805395 -19.897858
3.5401758 1.3970665 -20.118969
3.5140508 1.9697123 -20.252336
3.4788232 2.4606535 -20.298838
3.4120267 2.9321874 -20.299983
3.3514957 3.3668034 -20.27741
3.2899919 3.7988202 -20.254735
3.2387513 4.2475928 -20.215694
3.177113 4.6782617 -20.161953
3.1205066 5.0991214 -20.10585
3.0807393 5.5113997 -19.943455
3.0673602 5.9207104 -19.713619
3.0510137 6.3136917 -19.49666
3.04754 6.7063755 -19.271425
3.045549 7.1024219 -19.046542
3.0429588 7.5142096 -18.82641
3.0504673 7.9242998 -18.585298
1.3797223 -8.4504316 -12.898505
1.7379084 -7.830885 -13.485157
2.156357 -7.1748452 -14.097735
2.6205716 -6.4011541 -14.779378
3.0674919 -5.4798426 -15.563468
3.3147291 -4.687936 -16.231708
3.4837907 -3.9793919 -16.788154
3.7129524 -3.3037576 -17.277915
3.9383617 -2.6416887 -17.742289
4.0625689 -2.0147127 -18.140394
4.165037 -1.3975923 -18.510067
4.2407479 -0.79385492 -18.847568
4.263664 -0.22188645 -19.143966
4.2862464 0.35613865 -19.406696
4.311976 0.94375512 -19.617086
4.3138977 1.5407381 -19.769861
4.2819093 2.1142242 -19.897242
4.2120739 2.6479612 -19.969308
4.134659 3.1441857 -19.993904
4.0722281 3.5931636 -19.975264
4.0161161 4.0662514 -19.934026
3.9619566 4.512883 -19.871923
3.912838 4.9559543 -19.805433
3.8834675 5.4212711 -19.719572
3.8477031 5.8767326 -19.620233
3.8290154 6.2793254 -19.397866
3.8147979 6.689092 -19.167066
3.8004736 7.1072556 -18.933429
3.7975171 7.5246748 -18.700653
3.7992461 7.9516776 -18.437951
1.5489108 -9.0212236 -12.381049
1.9577329 -8.3535095 -12.996138
2.4535108 -7.638159 -13.654307
3.0024617 -6.853531 -14.357433
3.511546 -5.98773 -15.089429
3.8197079 -5.2223595 -15.73677
4.0743577 -4.5486988 -16.257233
4.3149769 -3.8394914 -16.762922
4.5241102 -3.1536059 -17.235063
4.6803595 -2.5194033 -17.630663
4.8291936 -1.8924165 -18.010929
4.9295009 -1.2794912 -18.338032
5.0282051 -0.66146227 -18.609627
5.0981576 -0.068840694 -18.830101
5.1175211 0.53575349 -19.028766
5.1150966 1.1132797 -19.194094
5.0718278 1.6812485 -19.333194
5.0238187 2.2655248 -19.441456
4.9651122 2.8213585 -19.517177
4.9149942 3.3623865 -19.543336
4.8541701 3.8796667 -19.535418
4.804408 4.3484834 -19.491299
4.7716588 4.8039487 -19.415809
4.7382619 5.2681056 -19.33686
4.7032228 5.7331544 -19.256024
4.6678896 6.1900237 -19.177559
4.6443064 6.6252214 -19.002563
4.6273407 7.0656675 -18.759104
4.6167356 7.5051845 -18.50123
4.6048199 7.9495831 -18.240491
1.7534976 -9.3805399 -12.059354
2.2350409 -8.7255564 -12.665775
2.7962375 -7.9733567 -13.328637
3.3762827 -7.2076466 -14.015924
3.9689562 -6.366293 -14.732737
4.3752295 -5.6408425 -15.274275
4.6707399 -4.9882476 -15.762971
4.9749433 -4.3320382 -16.258959
5.2006434 -3.6571767 -16.69854
5.388667 -3.0074526 -17.072989
5.5859312 -2.3512519 -17.428193
5.7485609 -1.7126826 -17.729244
5.8442082 -1.0975722 -17.99358
5.9290176 -0.47736234 -18.209098
6.013233 0.14290252 -18.38742
6.0348841 0.71604848 -18.5358
5.9985903 1.2856991 -18.681148
5.959832 1.8827481 -18.815184
5.9125894 2.4738265 -18.901065
5.8591052 3.0418577 -18.956992
5.7997399 3.6224665 -19.003095
5.758483 4.1516667 -18.978992
5.717555 4.6336246 -18.928745
5.6744885 5.1146601 -18.876716
5.6451748 5.584936 -18.799756
5.6117093 6.0407912 -18.723443
5.5875973 6.539955 -18.62124
5.5637404 7.0260925 -18.492149
5.5443677 7.4691107 -18.235053
5.5264777 7.9154921 -17.978306
2.0115 -9.6292055 -11.839981
2.5805318 -8.9548609 -12.454756
3.1792925 -8.2103123 -13.120103
3.7923472 -7.4395435 -13.785617
4.4585953 -6.6458769 -14.411849
4.9209792 -6.0080253 -14.853545
5.2897995 -5.3807363 -15.301636
5.6589027 -4.7138023 -15.752794
5.9288249 -4.0711825 -16.141374
6.1463642 -3.4223981 -16.471684
6.3692005 -2.765437 -16.799267
6.5645493 -2.1201982 -17.082968
6.6927825 -1.4791733 -17.328794
6.7826164 -0.84896385 -17.535497
6.8515489 -0.23386655 -17.721523
6.892815 0.33611902 -17.874354
6.9101421 0.91289794 -18.012112
6.9078307 1.5029031 -18.147347
6.8794713 2.1333118 -18.259748
6.8305838 2.7257262 -18.322677
6.8018542 3.3301827 -18.349042
6.7658906 3.9198066 -18.373186
6.7228506 4.4391099 -18.371478
6.6804193 4.9381201 -18.335137
6.6399376 5.4273529 -18.272501
6.6035629 5.92105 -18.1915
6.5779768 6.4364298 -18.093044
6.5517042 6.9296919 -17.980198
6.522949 7.4230395 -17.875362
6.5013021 7.8888979 -17.671362
2.3384308 -9.8007917 -11.680992
2.9424053 -9.1243352 -12.292523
3.572042 -8.4272029 -12.911872
4.2385205 -7.6413686 -13.535648
4.9615821 -6.8668862 -14.126743
5.4416382 -6.2898086 -14.511309
5.9114464 -5.6879565 -14.856918
6.3245786 -5.0393875 -15.241914
6.623596 -4.4101765 -15.574315
6.9131361 -3.7691193 -15.872714
7.1344668 -3.1235955 -16.165948
7.3354334 -2.4809678 -16.435058
7.5118851 -1.846465 -16.66201
7.6345334 -1.2165246 -16.858942
7.6814965 -0.61390606 -17.048538
7.7332358 -0.04285594 -17.205999
7.7599307 0.53335355 -17.342611
7.7930148 1.1383657 -17.46562
7.8262411 1.7704022 -17.579976
7.829428 2.409191 -17.647184
7.7996047 3.0319301 -17.69268
7.7685427 3.6349374 -17.722473
7.7253237 4.187252 -17.730768
7.6867539 4.7233308 -17.707044
7.6504401 5.2552787 -17.676405
7.6172999 5.7780476 -17.610014
7.585023 6.2951668 -17.520159
7.5482065 6.8099523 -17.431869
7.5149725 7.319884 -17.338191
7.4843932 7.8379767 -17.233986
2.7041545 -9.9437403 -11.553096
3.3261796 -9.2797442 -12.139207
4.0041255 -8.5641365 -12.705497
4.7378167 -7.8449587 -13.251736
5.4794969 -7.0733283 -13.801768
6.0041037 -6.4830597 -14.157476
6.504542 -5.9194565 -14.482624
6.9636783 -5.2994236 -14.743949
7.3069195 -4.6777549 -15.019931
7.5905882 -4.0788031 -15.287089
7.8466864 -3.4600049 -15.549689
8.0691336 -2.8157823 -15.815679
8.2644149 -2.1741708 -16.027291
8.403437 -1.5653831 -16.210456
8.4839955 -0.97522382 -16.38455
8.5452154 -0.40064799 -16.544872
8.5896239 0.17594269 -16.68293
8.6368851 0.77890466 -16.799505
8.6953785 1.4227021 -16.887595
8.7496707 2.0702353 -16.975606
8.7765506 2.7116276 -17.023221
8.7688396 3.3405448 -17.041193
8.7368824 3.9101143 -17.033933
8.6974777 4.4768444 -17.025569
8.6592332 5.0371326 -16.999515
8.6269292 5.5919183 -16.965354
8.5763786 6.1422152 -16.930561
8.5366695 6.676261 -16.859332
8.5008474 7.1946752 -16.770829
8.4319544 7.7359872 -16.705403
3.1012362 -10.043144 -11.423286
3.774837 -9.3714178 -11.968245
4.5005735 -8.6771669 -12.480856
5.2844751 -7.9658785 -12.987077
6.0403183 -7.2621486 -13.450122
6.5956999 -6.6560039 -13.767904
7.1391838 -6.0610838 -14.051602
7.5967487 -5.478732 -14.297508
7.9504056 -4.9100404 -14.509367
8.2405178 -4.333289 -14.73774
8.5052422 -3.7354141 -14.994636
8.7576002 -3.1165419 -15.235268
8.9543103 -2.4800654 -15.434258
9.0796403 -1.8885391 -15.607083
9.204627 -1.3039008 -15.771357
9.2959065 -0.73688865 -15.913753
9.3743718 -0.15932028 -16.042846
9.4476754 0.4582037 -16.140839
9.5130672 1.1036855 -16.224645
9.5760563 1.7486091 -16.295835
9.6295739 2.4022489 -16.334047
9.663029 3.0451229 -16.345757
9.691151 3.6588012 -16.35131
9.6634604 4.2412773 -16.338779
9.6152268 4.8394651 -16.332495
9.5717386 5.4096769 -16.308563
9.5268407 5.9777509 -16.273495
9.471654 6.5495183 -16.242888
9.4021513 7.1015221 -16.225676
9.3149202 7.6696033 -16.201649
3.5538947 -10.097823 -11.265103
4.2797796 -9.4274065 -11.775154
5.0649543 -8.7602095 -12.242057
5.8864181 -8.0579611 -12.693699
6.646675 -7.362093 -13.070791
7.2369198 -6.7803578 -13.33767
7.7589861 -6.2057336 -13.595339
8.1922432 -5.6444765 -13.832269
8.5705248 -5.1052752 -14.038498
8.8728203 -4.5425984 -14.241488
9.1565149 -3.9840603 -14.442082
9.421647 -3.3880489 -14.679067
9.6025807 -2.7763556 -14.870747
9.7316453 -2.1824676 -15.035985
9.8511 -1.5981559 -15.192361
9.9823209 -1.0157765 -15.334687
10.088604 -0.42624986 -15.445162
[...]
POINT_DATA 900
VECTORS normals float
-0.021423428 -0.65154257 -0.75830951
-0.023180964 -0.64339264 -0.76518531
-0.033891223 -0.63822422 -0.76910417
-0.037373103 -0.63504405 -0.77157132
-0.018142352 -0.6286733 -0.77745787
-0.0043882247 -0.61985593 -0.78470336
0.02218836 -0.60133089 -0.79869195
0.034128009 -0.5714505 -0.81992659
0.057441372 -0.52806804 -0.84725712
0.073664927 -0.47859645 -0.87493938
0.10218207 -0.42547978 -0.89918061
0.096388459 -0.37161679 -0.92336895
0.1149258 -0.30319707 -0.9459723
0.1330756 -0.22233326 -0.96584616
0.15051833 -0.12326305 -0.98089268
0.13729558 -0.044503725 -0.98952986
0.12798163 0.028502735 -0.99136688
0.10804231 0.094084338 -0.98968429
0.084428149 0.14965662 -0.98512679
0.065917221 0.21296298 -0.97483419
0.055963162 0.2625844 -0.96328478
0.050766387 0.31946946 -0.94623572
0.037282255 0.4010804 -0.91528386
0.04870693 0.42808208 -0.90242638
0.061373835 0.44779848 -0.89202566
0.049963083 0.48481157 -0.87319037
0.051480379 0.51443657 -0.85598177
0.040076007 0.53263382 -0.84539643
0.032950432 0.54962804 -0.83475942
0.017356446 0.56065578 -0.82786705
-0.0090738282 -0.66396453 -0.74770902
-0.012000949 -0.65578202 -0.7548549
-0.013559677 -0.64769985 -0.76177493
-0.010800358 -0.64303795 -0.76575815
0.00038606351 -0.63627538 -0.77146192
0.018985582 -0.6262989 -0.77935181
0.048640748 -0.61215814 -0.78923791
0.08799143 -0.59571981 -0.79835795
0.122412 -0.56560665 -0.81553934
0.14502925 -0.53551249 -0.8319813
0.16714447 -0.49380806 -0.85335592
0.19500821 -0.44046184 -0.87633622
0.2223056 -0.37270447 -0.90092819
0.2495426 -0.27613473 -0.92815845
0.26995613 -0.18623953 -0.94468964
0.2614306 -0.098024865 -0.96023183
0.26552293 -0.021420265 -0.96386656
0.24158522 0.061900924 -0.96840325
0.23108207 0.11175068 -0.96649514
0.21183831 0.16995572 -0.96241342
0.18794654 0.25577371 -0.94829105
0.17487636 0.31887571 -0.93152377
0.16313101 0.36663325 -0.91595215
0.1434506 0.42131557 -0.89549713
0.11689597 0.46082037 -0.87976129
0.11751514 0.4807267 -0.86896031
0.10710734 0.5018796 -0.85828019
0.09940977 0.51404121 -0.85198552
0.082616453 0.52827022 -0.84504739
0.066452298 0.5430799 -0.83704738
0.0035366763 -0.66974969 -0.74257851
0.0040373036 -0.66806498 -0.74409198
0.0022141842 -0.65732577 -0.7536033
0.013945067 -0.6483361 -0.76122653
0.020629401 -0.64459342 -0.76424718
0.043890998 -0.63170683 -0.77396387
0.069068687 -0.61711179 -0.78383835
0.11932735 -0.60045744 -0.79070339
0.14893956 -0.5806627 -0.80040479
0.19111973 -0.55212793 -0.81155899
0.21686704 -0.51910707 -0.8267385
0.25071525 -0.4620162 -0.85069554
0.28734205 -0.39148075 -0.87417239
0.3148815 -0.31822683 -0.89419311
0.3419037 -0.24027216 -0.90849939
0.3448569 -0.14914014 -0.92673132
0.35843442 -0.074994396 -0.93053781
0.3539859 -0.0042703301 -0.93524101
0.32825873 0.081731278 -0.94104527
0.31398832 0.13206833 -0.94019641
0.3007698 0.19026616 -0.93452465
0.27090773 0.26639044 -0.92501088
0.23993126 0.3229598 -0.91549438
0.20611099 0.38692268 -0.89878201
0.18389749 0.4264981 -0.88559646
0.16524989 0.46301057 -0.87081208
0.1509864 0.48133889 -0.86343267
0.13569718 0.4956801 -0.85783886
0.12395818 0.50758298 -0.85263936
0.11659453 0.52283923 -0.84441984
0.014179695 -0.67140493 -0.74095503
0.012798757 -0.67131534 -0.74106134
0.020059257 -0.67109568 -0.74109933
0.030215977 -0.66198898 -0.74890426
0.05584186 -0.65109346 -0.75694054
0.072539731 -0.63971544 -0.76518112
0.10058665 -0.6222799 -0.77630539
0.13251323 -0.60155449 -0.7877642
0.18763014 -0.56919825 -0.80050501
0.22641196 -0.55054207 -0.80351793
0.26823959 -0.51589417 -0.81357282
0.29375292 -0.47304143 -0.83062689
0.32561266 -0.40947338 -0.85223703
0.37248584 -0.34532434 -0.86139735
0.40998668 -0.26285675 -0.8733941
0.44380926 -0.19226389 -0.87525307
0.45654456 -0.12028303 -0.88153222
0.45154642 -0.052198394 -0.89071946
0.4447689 0.015142634 -0.89551735
0.43398902 0.072911391 -0.89796295
0.39639918 0.15856903 -0.90428068
0.38293009 0.19780982 -0.90235017
0.35453828 0.24925046 -0.90120853
0.3121389 0.31561172 -0.89607954
0.28247364 0.3753159 -0.88280611
0.24226995 0.41880707 -0.8751605
0.226124 0.44585647 -0.86607156
0.20551492 0.46855598 -0.85919667
0.18239944 0.48855404 -0.85325576
0.17030588 0.50311422 -0.84727327
0.02345425 -0.67364621 -0.73868172
0.022811243 -0.67338482 -0.73894014
0.029736239 -0.67390027 -0.73822367
0.056415758 -0.66876185 -0.74133316
0.081296313 -0.65038523 -0.75524166
0.10236286 -0.64351859 -0.75855499
0.13078059 -0.62965521 -0.76578767
0.16806202 -0.60474906 -0.77848168
0.22218146 -0.56738462 -0.79291241
0.25755202 -0.54400745 -0.79857551
0.29883504 -0.50978491 -0.80673227
0.33761656 -0.47216352 -0.8142952
0.37829356 -0.41471628 -0.8275895
0.41961437 -0.34276025 -0.84049937
0.44828138 -0.27612141 -0.8501769
0.49191844 -0.2034368 -0.84653985
0.50991897 -0.15126304 -0.84681883
0.51513021 -0.086727372 -0.85271286
0.5171461 -0.03550538 -0.85516038
0.5081214 0.034038269 -0.8606126
0.49989425 0.096832213 -0.8606563
0.4829197 0.14615072 -0.86338203
0.45965441 0.20483254 -0.86415361
0.44197318 0.24343784 -0.86336419
0.40566614 0.29121469 -0.86638847
0.37404303 0.33688618 -0.8640599
0.33565034 0.38089114 -0.86154558
0.30364403 0.41781044 -0.85629127
0.25733542 0.45503874 -0.8524777
0.23805183 0.47341983 -0.84805955
0.030272153 -0.67834579 -0.73411892
0.030028814 -0.67822114 -0.73424407
0.04557714 -0.67798701 -0.73365955
0.069803837 -0.67028415 -0.73881431
0.10597819 -0.65952769 -0.74417192
0.13737133 -0.64263412 -0.75375759
0.16507278 -0.63101141 -0.75800764
0.21132724 -0.60192433 -0.77008304
0.26214691 -0.56899145 -0.77944065
0.30818308 -0.52732033 -0.79180582
0.34082107 -0.49991442 -0.79619506
0.38495427 -0.46099509 -0.79955847
0.42114961 -0.40861436 -0.80973286
0.46462876 -0.33124337 -0.82121735
0.49982912 -0.26429957 -0.82481306
0.52737558 -0.20929162 -0.82345128
0.54104898 -0.15854852 -0.82591063
0.54604932 -0.11432989 -0.82991494
0.54880387 -0.059786225 -0.83381048
0.55144138 -0.01826136 -0.83401374
0.54016606 0.046021391 -0.84029915
0.5300099 0.10229429 -0.8417989
0.51418512 0.14611136 -0.84514208
0.50327818 0.1816005 -0.8448268
0.48267764 0.21028169 -0.85017875
0.45581223 0.25370557 -0.85315221
0.41765778 0.30712615 -0.85512309
0.38494866 0.35317337 -0.85269168
0.35359128 0.38426709 -0.8528259
0.31324054 0.41838772 -0.85254447
0.041719622 -0.68487383 -0.72746637
0.043719644 -0.68057596 -0.73137197
0.063426169 -0.67706446 -0.7331854
0.096010138 -0.67133026 -0.73491342
0.1339352 -0.65879257 -0.7403065
0.16823003 -0.64270402 -0.74741568
0.20543772 -0.625449 -0.75273428
0.24969416 -0.59811549 -0.76151867
0.30572678 -0.56209452 -0.76849261
0.34661864 -0.52427384 -0.77781261
0.38258033 -0.48193204 -0.78827267
0.41922491 -0.44575718 -0.79091783
0.46124808 -0.39539981 -0.79429793
0.49213578 -0.33356992 -0.80407305
0.51911016 -0.2661534 -0.81221118
0.54155259 -0.2229098 -0.81057511
0.55238916 -0.18003175 -0.81391326
0.56109962 -0.13608894 -0.81648455
0.56205282 -0.095089195 -0.82161711
0.55883985 -0.046062531 -0.82799533
0.55615479 0.005147762 -0.83106278
0.54963076 0.0463136 -0.83412294
0.53634793 0.094798657 -0.83865614
0.52525019 0.12874156 -0.84115269
0.51261825 0.1576943 -0.84401128
0.49296794 0.18419158 -0.85032704
0.47450338 0.22541005 -0.85090355
0.44798082 0.26228956 -0.85470309
0.40867388 0.31396552 -0.85697801
0.36585363 0.35406774 -0.86068993
0.053679131 -0.69091067 -0.72094452
0.06190013 -0.68475823 -0.72613672
0.089234788 -0.67818697 -0.72945157
0.12366616 -0.67393209 -0.72836956
0.16427078 -0.66360124 -0.72982773
0.1985961 -0.64583945 -0.73719128
0.25463926 -0.61627842 -0.74522464
0.29212686 -0.58726809 -0.75483646
0.33989692 -0.55272493 -0.76089765
0.37636357 -0.51728059 -0.76861645
0.41194543 -0.47513692 -0.77752548
0.4462623 -0.43518568 -0.78196124
0.48574916 -0.38401996 -0.78522381
0.5129534 -0.32429548 -0.79480265
0.53657255 -0.2669871 -0.80050471
0.54786313 -0.2231784 -0.80624897
0.55963583 -0.1910094 -0.80642616
0.56159652 -0.16322615 -0.81115139
0.56553787 -0.12257946 -0.81556189
0.56617132 -0.076103318 -0.82076691
0.56533091 -0.02478891 -0.82449164
0.55900176 0.015169441 -0.8290277
0.55516326 0.056937971 -0.82979023
0.54842611 0.086930877 -0.8316681
0.53529088 0.11772299 -0.83642392
0.51987425 0.13887667 -0.84287842
0.50447698 0.16770972 -0.84698077
0.4854546 0.19831785 -0.85147159
0.47271665 0.22640475 -0.85163364
0.42774546 0.28190922 -0.85881373
0.074196929 -0.69370743 -0.71642502
0.087340835 -0.69118921 -0.71737651
0.11612336 -0.68432372 -0.7198725
0.15640452 -0.67662895 -0.71952129
0.2029639 -0.66950694 -0.71453909
0.2513798 -0.64768837 -0.71924125
0.29760947 -0.61278555 -0.73206726
0.3286809 -0.58190618 -0.74387772
0.37574066 -0.54168176 -0.75193073
0.40103814 -0.50972111 -0.76115229
0.42878007 -0.47490041 -0.76851627
0.45984402 -0.42497566 -0.77970454
0.50417125 -0.37681694 -0.77705878
0.53087601 -0.32526518 -0.78254279
0.54912253 -0.27443034 -0.78940005
0.56306881 -0.24185734 -0.7902269
0.56985103 -0.20743792 -0.79513478
0.57127222 -0.17975347 -0.80083503
0.57825339 -0.14107313 -0.80356791
0.5824434 -0.099367257 -0.80677496
0.58565284 -0.056857918 -0.80856535
0.58064905 -0.015970685 -0.81399731
0.57936898 0.014835169 -0.81493037
0.56811762 0.05052416 -0.82139496
0.56257502 0.078105088 -0.82304856
0.54166824 0.10173188 -0.83441365
0.53147083 0.12256842 -0.83816212
0.51592225 0.1420004 -0.84478406
0.49304384 0.16861822 -0.85350786
0.46522165 0.21173146 -0.85949904
0.095499302 -0.70656522 -0.70117435
0.11750749 -0.69757806 -0.7068075
0.1596508 -0.68821766 -0.70772033
0.20192964 -0.68238255 -0.70255141
0.24976945 -0.67239129 -0.69678202
0.29733593 -0.64486931 -0.70408446
0.33835374 -0.61067542 -0.7159555
0.36386471 -0.5792858 -0.72940417
0.39305171 -0.5441792 -0.74120129
0.41008663 -0.51507968 -0.75267648
0.44668266 -0.47021524 -0.76116504
0.47502143 -0.42424818 -0.77095274
0.51447047 -0.3673176 -0.77485348
0.54002933 -0.33426831 -0.77242024
0.55867341 -0.28708862 -0.77811577
0.57116266 -0.25335209 -0.78075985
0.580139 -0.21342911 -0.78605773
0.58878879 -0.18857175 -0.78598248
0.59819587 -0.15584754 -0.78604914
0.60339735 -0.11604474 -0.788952
0.60881576 -0.073573213 -0.78989262
0.60995141 -0.041579993 -0.7913472
0.60622059 -0.0086892745 -0.79524908
0.6003095 0.01925174 -0.79953603
0.58493535 0.050383746 -0.8095135
0.57117667 0.070230278 -0.81781717
0.5607802 0.080938055 -0.82399915
0.54715846 0.099025141 -0.83115079
0.52311619 0.11759081 -0.8441101
0.4945796 0.15602929 -0.85501221
0.13799 -0.71251833 -0.68795086
0.17325969 -0.70457433 -0.68815412
0.22039029 -0.69556303 -0.6838276
0.25181697 -0.6899592 -0.6786343
0.29167705 -0.67350346 -0.67920364
0.33288377 -0.64779672 -0.68523559
0.36277697 -0.6142051 -0.70081735
0.38207462 -0.58509743 -0.7153181
0.41021313 -0.54419631 -0.73183028
0.43467304 -0.50867465 -0.74317525
0.46124944 -0.46896573 -0.75320654
0.50126732 -0.41721125 -0.75806718
0.52622841 -0.36978367 -0.76573082
0.5562824 -0.32375531 -0.76533156
0.57278232 -0.28815693 -0.76738908
0.58455537 -0.26194284 -0.76790688
0.59398955 -0.23006949 -0.77087252
0.60131391 -0.19385901 -0.77513887
0.61260304 -0.16103795 -0.77381153
0.62032453 -0.12516269 -0.77429437
0.6252602 -0.089933496 -0.77521716
0.62626696 -0.061786196 -0.77715646
0.62525962 -0.033980192 -0.7796767
0.61777574 -0.0082671723 -0.78631087
0.61264537 0.012357424 -0.79026132
0.5988848 0.034565118 -0.8000889
0.58395561 0.052871804 -0.81006198
0.57005122 0.064287292 -0.8190902
0.55994021 0.080399899 -0.82462283
0.54249731 0.11234095 -0.83251197
0.17967835 -0.71534686 -0.67527369
0.23081515 -0.71004271 -0.66525462
0.26793778 -0.70179484 -0.66007071
0.29360793 -0.69597172 -0.65529975
0.32599811 -0.67376872 -0.66314474
0.36245015 -0.64595506 -0.6718422
0.38081038 -0.62193092 -0.68424074
0.40755689 -0.59162315 -0.69561443
0.43211527 -0.55211085 -0.7130568
0.45790937 -0.511183 -0.72733139
0.48679809 -0.46547388 -0.73916282
0.51601722 -0.41919207 -0.74699681
0.53833951 -0.37422151 -0.755082
0.56690757 -0.32754159 -0.75586528
0.58309342 -0.28884628 -0.759322
0.59714259 -0.26276887 -0.75787416
0.60270096 -0.22842387 -0.76457445
0.61072531 -0.18996213 -0.76871905
0.62041665 -0.15509723 -0.76878347
0.62873264 -0.12090269 -0.76816522
0.62962223 -0.098765925 -0.77059791
0.63216096 -0.076399503 -0.77106137
0.63264797 -0.050445539 -0.77279479
0.62952335 -0.025341475 -0.77656819
0.62303801 -0.010853464 -0.78211625
0.61868388 0.0048364604 -0.78562515
0.60525549 0.02961454 -0.79548021
0.59602739 0.044767568 -0.80171517
0.58646714 0.059440743 -0.80778901
0.5739911 0.074608634 -0.81545556
0.24516977 -0.72334647 -0.64549336
0.2859758 -0.71493428 -0.63803355
0.30618058 -0.70942182 -0.63480244
0.32277553 -0.69546256 -0.64198737
0.35282457 -0.66957718 -0.65359102
0.38613859 -0.64074491 -0.66358342
0.40590566 -0.62086718 -0.67064487
0.42841339 -0.59494646 -0.68007402
0.45316772 -0.55877622 -0.69455609
0.48212947 -0.5144064 -0.70918068
0.50912112 -0.46534366 -0.72405177
0.52749999 -0.42466375 -0.73580192
0.5563076 -0.3709847 -0.74356722
0.57753894 -0.32847235 -0.74736516
0.59219396 -0.28993446 -0.75182732
0.60275423 -0.26148849 -0.75386411
0.61537441 -0.23576565 -0.75214952
0.61784727 -0.20229005 -0.75983122
0.62484277 -0.17115431 -0.76175962
0.631687 -0.13850954 -0.7627494
0.63312756 -0.11085337 -0.76606855
0.63524077 -0.082050423 -0.76794329
0.63555659 -0.059581803 -0.7697518
0.63300928 -0.039318329 -0.77314509
0.62976984 -0.022667913 -0.77645097
0.62644926 -0.01142718 -0.77937844
0.61737193 0.0058706835 -0.7866495
0.6057595 0.023413059 -0.79530325
0.59841459 0.032944488 -0.80050899
0.58309459 0.054585221 -0.81056841
0.29205599 -0.72728338 -0.62109757
0.32063425 -0.72143614 -0.61377812
0.32203078 -0.71871379 -0.61623588
0.3446222 -0.69510753 -0.6309208
0.37918485 -0.66298618 -0.64549839
0.40566058 -0.63890169 -0.65363914
0.4243047 -0.61760847 -0.66221243
0.44984158 -0.59332864 -0.66753553
0.47709139 -0.55568868 -0.6808773
0.50209788 -0.51467517 -0.69498719
0.52074637 -0.47907107 -0.70662163
0.54551693 -0.42648342 -0.72147291
0.56760495 -0.3731587 -0.73387819
0.58739387 -0.32657259 -0.74048551
0.60317291 -0.28946958 -0.74322931
0.61107047 -0.26240569 -0.74681734
0.61873797 -0.2372594 -0.74891341
0.62733425 -0.20908656 -0.75015635
0.63460656 -0.17378261 -0.75304324
0.63860046 -0.14350712 -0.75603913
0.63924016 -0.11720381 -0.76002321
0.63919032 -0.097713421 -0.76281572
0.63866132 -0.072036651 -0.76610864
0.63469392 -0.046639138 -0.77135492
0.63381486 -0.028576598 -0.77295673
0.63003627 -0.017357075 -0.77637171
0.627408 -0.0086516565 -0.77864263
0.61951252 0.0033426703 -0.78497966
0.60869375 0.019045142 -0.79317665
0.59332341 0.036986427 -0.80411401
0.31933695 -0.73106085 -0.60297094
0.32863688 -0.73030214 -0.59887944
0.33946463 -0.7205909 -0.60457632
0.36933959 -0.68867215 -0.62395427
0.40291237 -0.65972509 -0.63436932
0.42361529 -0.63563275 -0.64538445
0.44781915 -0.61393214 -0.65003488
0.47111577 -0.58604458 -0.65924326
0.49115583 -0.55892017 -0.6681124
0.51504666 -0.52079998 -0.68080417
0.53424385 -0.48128246 -0.69494655
0.55534317 -0.43642878 -0.70790104
0.57674508 -0.38424235 -0.72091811
0.59890208 -0.32990463 -0.72971175
0.61196212 -0.29051012 -0.73559924
0.61728669 -0.26805321 -0.73966521
0.62571851 -0.24121867 -0.74181527
0.63218938 -0.21628725 -0.74401372
0.64183754 -0.18373091 -0.74450489
0.64880049 -0.15430918 -0.74514871
0.64981497 -0.12641157 -0.74950692
0.64660687 -0.10495177 -0.75556911
0.64570684 -0.085132469 -0.75882484
0.64081611 -0.060684944 -0.76529213
0.63766951 -0.035356472 -0.76949822
0.63545792 -0.023170732 -0.77178776
0.63276882 -0.018084509 -0.77412955
0.62904676 -0.011220005 -0.77728649
0.62211503 -0.0032113592 -0.78291927
0.60935592 0.012415059 -0.79279962
0.3348348 -0.73899714 -0.58461003
0.34192023 -0.73830193 -0.58137838
0.35764681 -0.71899539 -0.59593153
0.397137 -0.68708968 -0.60843239
0.43077842 -0.6580826 -0.61754129
0.44770007 -0.6352985 -0.62925389
0.46642182 -0.61368728 -0.63705463
0.48971144 -0.58658333 -0.64506023
0.50739382 -0.55259832 -0.66120088
0.53068136 -0.51813856 -0.67075311
0.54828104 -0.48698867 -0.67987495
0.56861354 -0.45043661 -0.68832078
0.58972128 -0.39792915 -0.70276682
0.60859915 -0.34276897 -0.71562316
0.62079667 -0.29892522 -0.72474492
0.6238611 -0.27306523 -0.73227912
0.63010438 -0.24690367 -0.73621127
0.6376994 -0.21836519 -0.7386854
0.64926459 -0.18415328 -0.73793161
0.65419563 -0.16091838 -0.73900836
0.65703872 -0.1350703 -0.7416577
0.65209039 -0.11677507 -0.74909393
0.65125389 -0.094263127 -0.75298263
0.64973213 -0.072699405 -0.7566789
0.64509568 -0.049486821 -0.76249762
0.6419695 -0.031990806 -0.7660625
0.63741364 -0.023037607 -0.77017733
0.63181763 -0.020865381 -0.77483619
0.62701008 -0.018667599 -0.77878744
0.61643507 -0.0064638694 -0.78737921
0.34992558 -0.74922589 -0.56232789
0.35553652 -0.74097734 -0.56968971
0.3869149 -0.71685409 -0.58001472
0.42709327 -0.68416141 -0.59119752
0.45784016 -0.65882363 -0.59693703
0.47220691 -0.63992293 -0.60623368
0.49148484 -0.61525023 -0.61636824
0.50652916 -0.59030872 -0.62846148
0.53278748 -0.55359262 -0.6400568
0.54997445 -0.5188079 -0.65449711
0.57012011 -0.4850628 -0.66308155
0.58880985 -0.44419853 -0.67527078
0.60943854 -0.39730343 -0.68610105
0.62207797 -0.35151382 -0.69961206
0.63073152 -0.31298944 -0.71008124
0.63739873 -0.27792206 -0.71866695
0.64369081 -0.25311251 -0.72221617
0.64898493 -0.22093417 -0.72801555
0.65356875 -0.19297132 -0.73185379
0.65861352 -0.16467038 -0.7342424
0.66072612 -0.14053661 -0.73735368
0.66131604 -0.12508216 -0.739605
0.65802664 -0.10619833 -0.74546821
0.65695516 -0.081352899 -0.7495276
0.65317161 -0.059257185 -0.7548877
0.65131454 -0.04505704 -0.75746897
0.64474872 -0.032595499 -0.7636993
0.63592381 -0.028303941 -0.77123265
0.6312716 -0.03021209 -0.77497316
0.62433715 -0.017933366 -0.78094912
0.37321995 -0.75799607 -0.5349288
0.38184391 -0.74367574 -0.54876373
0.4251826 -0.71597422 -0.55371534
0.46123301 -0.68435477 -0.56473238
0.48523319 -0.66642239 -0.56606532
0.49992469 -0.64798963 -0.57461704
0.51473995 -0.62997322 -0.58152947
0.53287985 -0.60024778 -0.59644083
0.55785709 -0.56061642 -0.61196789
0.57503538 -0.52254254 -0.6295106
0.59698132 -0.4949464 -0.63138052
0.61460368 -0.4566743 -0.64320362
0.62755299 -0.41196874 -0.66065043
0.63922522 -0.37387045 -0.67202083
0.64554738 -0.33129828 -0.68812065
0.65281064 -0.29719792 -0.69678668
0.65532654 -0.26385463 -0.70776258
0.65719854 -0.23514386 -0.71609876
0.66148646 -0.20481196 -0.72144835
0.66529422 -0.16942608 -0.72710275
0.6701237 -0.14555865 -0.72783715
0.67047836 -0.13046143 -0.7303688
0.67068127 -0.11380311 -0.7329635
0.66780702 -0.092861298 -0.73851917
0.66282656 -0.073100382 -0.74519614
0.65934385 -0.058652032 -0.74955029
0.65156475 -0.046181626 -0.757186
0.64332508 -0.039719487 -0.7645621
0.63939604 -0.034779543 -0.76809054
0.63847919 -0.027140974 -0.76916038
0.39449484 -0.76384183 -0.51080278
0.42676532 -0.74420476 -0.51383911
0.46257601 -0.70773246 -0.53398333
0.49285712 -0.68524811 -0.53621533
0.50957551 -0.66841057 -0.54181187
0.52345024 -0.65314592 -0.54717479
0.53913852 -0.63472471 -0.55358306
0.56185854 -0.60126171 -0.56815432
0.58700829 -0.56456821 -0.58024478
0.60826353 -0.53052749 -0.59038637
0.62765756 -0.49691023 -0.5992714
0.64223506 -0.46315596 -0.61075419
0.65183114 -0.42909793 -0.62529284
0.65642868 -0.39039051 -0.64552044
0.66281791 -0.34942346 -0.66225046
0.66526613 -0.31522015 -0.67679926
0.66972006 -0.28688547 -0.68496114
0.66878954 -0.2553963 -0.69820719
0.66862047 -0.22106631 -0.70998335
0.67176329 -0.18176427 -0.71811965
0.67670722 -0.15128222 -0.72054218
0.67862018 -0.12948131 -0.72298633
0.6812573 -0.1204803 -0.72206162
0.67919657 -0.10549746 -0.72633485
0.67619316 -0.089719244 -0.73124091
0.66893288 -0.073105641 -0.73971911
0.66128467 -0.057325507 -0.74794142
0.65570869 -0.047522741 -0.75351689
0.65505883 -0.037675721 -0.75463797
0.65331937 -0.030153831 -0.75648169
0.42859652 -0.7681376 -0.47567811
0.45571672 -0.74162757 -0.49225077
0.49842598 -0.70916582 -0.49865356