# vtk DataFile Version 2.0
Grain example
ASCII
DATASET UNSTRUCTURED_GRID
POINTS 900 float
19.858579 1.1418357 -4.9549212
19.989893 1.5204134 -4.9316607
20.086753 1.9211289 -4.9396144
20.16933 2.3281895 -4.9686932
20.254942 2.7688208 -4.9954301
20.397781 3.2329243 -4.990184
20.548762 3.7315753 -4.9506331
20.693686 4.2360594 -4.913854
20.816975 4.7647138 -4.8913145
20.944902 5.357202 -4.873559
21.106614 6.0951795 -4.8764168
21.25964 6.8374335 -4.8816523
21.391563 7.6876737 -4.8577934
21.552515 8.6181511 -4.8142514
21.709618 9.5119741 -4.7627903
21.854027 10.357757 -4.726293
21.980921 11.145437 -4.7120537
22.072183 11.857848 -4.7019211
22.162019 12.529413 -4.6961948
22.251478 13.162591 -4.6979832
22.327081 13.768636 -4.6906845
22.382901 14.340334 -4.662509
22.421949 14.898822 -4.6345314
22.460224 15.410352 -4.565284
22.491435 15.91464 -4.496825
22.511611 16.436731 -4.4060463
22.502938 16.994048 -4.3459526
22.391734 17.649857 -4.3020314
22.269477 18.280987 -4.2401028
22.139505 18.923097 -4.1667458
19.644508 1.1741002 -5.5201276
19.764271 1.5627488 -5.5101019
19.87518 1.964469 -5.508182
19.974509 2.3879446 -5.5141798
20.061316 2.8268252 -5.5507785
20.20632 3.2838442 -5.538028
20.358542 3.7694195 -5.5122757
20.497257 4.288894 -5.4826151
20.608467 4.8299386 -5.4628575
20.724012 5.4290513 -5.4494567
20.888794 6.1772428 -5.440089
21.030121 6.9270519 -5.4477059
21.168739 7.7837134 -5.4151674
21.346365 8.7295374 -5.332169
21.516022 9.6387809 -5.251119
21.639208 10.477719 -5.209305
21.742923 11.259345 -5.1817601
21.824128 11.959307 -5.1651116
21.895279 12.653211 -5.1269672
21.968735 13.291861 -5.1184637
22.046393 13.897167 -5.0987832
22.093758 14.465422 -5.0733729
22.131633 14.999116 -5.0228858
22.164538 15.511572 -4.9494016
22.189948 16.011415 -4.8853326
22.211216 16.53598 -4.7977116
22.203144 17.074157 -4.7353265
22.168775 17.658452 -4.6197312
22.043059 18.290785 -4.5419246
21.898839 18.934683 -4.4567431
19.432333 1.2059076 -6.0918427
19.558188 1.5894438 -6.0762839
19.663711 2.0099765 -6.068465
19.77586 2.4354851 -6.0574882
19.878288 2.8815697 -6.0637
20.019498 3.327096 -6.0460111
20.16433 3.817365 -6.0242137
20.271611 4.3564363 -6.0024837
20.375304 4.9000211 -5.9744473
20.493834 5.4958701 -5.9405246
20.656135 6.2333478 -5.9264145
20.797485 7.0143585 -5.9131456
20.949633 7.8739704 -5.8821779
21.110507 8.8073155 -5.7863583
21.269344 9.7414284 -5.6824509
21.396371 10.583024 -5.6396987
21.493071 11.362395 -5.6036255
21.552142 12.072926 -5.5821709
21.61303 12.780517 -5.5462131
21.686033 13.43036 -5.5332801
21.763656 14.026099 -5.5053059
21.799772 14.580461 -5.4710145
21.829732 15.097087 -5.4120353
21.85781 15.608329 -5.3466431
21.888059 16.114033 -5.2785063
21.906156 16.62969 -5.1938887
21.904073 17.165799 -5.1079954
21.847733 17.756106 -4.9906461
21.780946 18.323754 -4.8576021
21.659969 18.950033 -4.7516735
19.21077 1.2161107 -6.5621918
19.338594 1.6219812 -6.5451215
19.450192 2.0370413 -6.5331497
19.555783 2.4768946 -6.5309696
19.668764 2.9299285 -6.5359956
19.826774 3.3805464 -6.4991618
19.934659 3.8942869 -6.4971388
20.039556 4.4240741 -6.4856623
20.14355 4.973426 -6.4560517
20.257818 5.5608118 -6.4244921
20.405883 6.3000704 -6.4088163
20.528595 7.0658609 -6.3888407
20.6762 7.9424438 -6.3409239
20.83837 8.8733831 -6.2374068
21.001063 9.8130051 -6.1213689
21.13535 10.679636 -6.0591997
21.212026 11.482295 -6.0244423
21.27104 12.199177 -6.0084187
21.335774 12.907305 -5.9696956
21.394263 13.559912 -5.9455302
21.465201 14.15881 -5.9140125
21.496559 14.695526 -5.8736928
21.527121 15.199604 -5.8044454
21.548041 15.707823 -5.7433944
21.577831 16.21537 -5.676419
21.595215 16.735576 -5.5950607
21.570824 17.267298 -5.4844464
21.506206 17.869999 -5.3563616
21.435597 18.431449 -5.2280496
21.381928 18.988837 -5.0711161
18.972765 1.2036519 -7.0402103
19.107066 1.6453443 -7.0204696
19.229284 2.0687998 -7.0017903
19.340135 2.5117671 -7.0003974
19.456743 2.9672136 -7.0049292
19.569137 3.4459399 -6.9888677
19.689884 3.974844 -6.9590304
19.78877 4.4991413 -6.9542611
19.885882 5.0448576 -6.9218911
19.968703 5.621375 -6.8958696
20.084347 6.3494521 -6.8845488
20.218536 7.1125749 -6.8627865
20.384846 7.9895484 -6.7985807
20.547691 8.924972 -6.6790621
20.696931 9.8673393 -6.5596081
20.830068 10.788874 -6.4822456
20.904144 11.604859 -6.4497202
20.953245 12.32987 -6.4382476
20.99749 13.044466 -6.4200623
21.043611 13.710082 -6.3955225
21.118298 14.289655 -6.3576724
21.153506 14.809029 -6.3059925
21.17639 15.313765 -6.2437795
21.202941 15.825511 -6.1773886
21.224902 16.33161 -6.1154851
21.217998 16.865503 -6.0231575
21.187742 17.407403 -5.8884866
21.12786 17.991456 -5.7487432
21.080031 18.550721 -5.5989092
21.020894 19.089363 -5.4206573
18.708324 1.2037028 -7.5256931
18.855504 1.6636212 -7.5069144
18.982342 2.0910304 -7.4841288
19.101802 2.5509958 -7.4779346
19.189577 3.0392807 -7.4854738
19.290357 3.521165 -7.4689296
19.396531 4.0453606 -7.4418614
19.497673 4.5767876 -7.4146065
19.579821 5.1162465 -7.3901326
19.656711 5.695103 -7.3605671
19.763666 6.4033778 -7.3445012
19.899813 7.1628832 -7.3214526
20.060809 8.0168925 -7.2529397
20.213431 9.0007453 -7.1212127
20.350723 9.9612035 -7.0130034
20.480259 10.89432 -6.942261
20.54616 11.751588 -6.9103676
20.578549 12.482159 -6.9221924
20.617352 13.202073 -6.9103285
20.674297 13.831891 -6.865037
20.745335 14.421289 -6.8049041
20.783234 14.931444 -6.7477891
20.818166 15.438985 -6.6856305
20.839963 15.946489 -6.6247892
20.844817 16.470437 -6.5485725
20.831275 17.0083 -6.4534417
20.802184 17.548834 -6.2913468
20.766968 18.106169 -6.1243376
20.717377 18.656375 -5.9650276
20.650426 19.180489 -5.7532308
18.369773 1.1920262 -8.0365529
18.543369 1.6848758 -7.9944162
18.67037 2.1148495 -7.9619283
18.755547 2.6005652 -7.9731419
18.833875 3.1045331 -7.9770268
18.92637 3.5924243 -7.957041
19.019427 4.0971495 -7.9333207
19.11654 4.6306385 -7.9083384
19.213543 5.1802104 -7.8809035
19.272699 5.7639703 -7.8491846
19.366624 6.454581 -7.8295623
19.493504 7.2089716 -7.8036555
19.638315 8.0704941 -7.7469496
19.780413 9.0729077 -7.6179568
19.908557 10.05308 -7.5113495
20.028201 11.007094 -7.4356991
20.121066 11.890087 -7.389801
20.166776 12.644096 -7.3933482
20.214589 13.335759 -7.3723797
20.282205 13.950791 -7.3174995
20.35465 14.527998 -7.2413266
20.387592 15.048561 -7.1748773
20.428195 15.557062 -7.1188685
20.446102 16.086991 -7.0463956
20.448956 16.603394 -6.96179
20.433513 17.136254 -6.8332165
20.406635 17.67079 -6.6543464
20.373732 18.211882 -6.4754853
20.316308 18.746831 -6.2956502
20.252507 19.270558 -6.072803
17.984724 1.1887885 -8.5619052
18.162497 1.7123731 -8.5314302
18.252529 2.1899127 -8.505322
18.3188 2.6872019 -8.5055849
18.383548 3.191605 -8.5148317
18.468954 3.6759939 -8.5114446
18.553439 4.1700916 -8.5083134
18.647004 4.7056183 -8.4868866
18.734646 5.2587169 -8.4631112
18.809657 5.8433722 -8.4060304
18.902558 6.5262295 -8.3736285
19.01331 7.2856842 -8.3489218
19.14242 8.1520513 -8.2953377
19.278602 9.14617 -8.1741359
19.417099 10.148126 -8.0482042
19.53637 11.110537 -7.9589496
19.641896 12.016394 -7.9104952
19.711604 12.803688 -7.8832762
19.781895 13.463321 -7.8352372
19.851139 14.070118 -7.7747756
19.922052 14.626264 -7.6789813
19.955526 15.157659 -7.5813695
19.970743 15.68185 -7.5082532
19.986166 16.206902 -7.4360739
20.003229 16.727558 -7.334298
19.987752 17.260067 -7.191717
19.964648 17.793695 -7.0156047
19.944936 18.31958 -6.82232
19.890981 18.824518 -6.6061572
19.830492 19.338692 -6.3781705
17.479335 1.2151995 -9.1204151
17.581829 1.7710934 -9.1428945
17.654334 2.2953324 -9.1748395
17.711887 2.8196999 -9.2099521
17.790593 3.317653 -9.1976784
17.894222 3.7967636 -9.1583436
17.980987 4.2828344 -9.1517025
18.07551 4.7881637 -9.1292391
18.172741 5.3548417 -9.0757765
18.258963 5.9303627 -9.0213274
18.34776 6.6209487 -8.9686791
18.479323 7.3786479 -8.9209717
18.626074 8.2361918 -8.8643597
18.778285 9.2326629 -8.7328891
18.914974 10.230492 -8.6085334
19.045642 11.210425 -8.4938349
19.156912 12.135161 -8.4260585
19.247371 12.900148 -8.3648732
19.328084 13.580091 -8.2894703
19.397634 14.162332 -8.2012568
19.462446 14.72282 -8.1034854
19.471643 15.272552 -7.9989278
19.486936 15.807864 -7.9013077
19.517507 16.330738 -7.8141226
19.532033 16.851641 -7.710178
19.517131 17.383658 -7.5403712
19.493505 17.907562 -7.3553734
19.478005 18.405077 -7.1415442
19.434886 18.886619 -6.9016807
19.373768 19.377235 -6.652762
16.870673 1.2740769 -9.7433425
16.966869 1.8491784 -9.7764958
17.019838 2.4131368 -9.8278213
17.053544 2.9375718 -9.885047
17.161476 3.4399873 -9.8869605
17.282962 3.925195 -9.8679381
17.388138 4.4021577 -9.8205121
17.49074 4.9020378 -9.7579895
17.582248 5.4540234 -9.7074042
17.664813 6.0360614 -9.6589959
17.77445 6.7089594 -9.5849956
17.916557 7.4661803 -9.5245556
18.078056 8.3231976 -9.4454408
18.235494 9.3103896 -9.3023197
18.389545 10.299671 -9.1629508
18.536588 11.282792 -9.0253578
18.660824 12.219209 -8.908063
18.757866 12.982619 -8.8311872
18.855203 13.683841 -8.7419056
18.924056 14.264754 -8.6313863
18.97532 14.836669 -8.5170994
19.000935 15.381184 -8.3961016
19.021287 15.916383 -8.2757902
19.053652 16.437373 -8.1749896
19.068431 16.951286 -8.0584129
19.052264 17.483982 -7.8674978
19.036162 17.982002 -7.6603774
19.021837 18.466479 -7.4090521
18.988976 18.913823 -7.1356147
18.932836 19.402515 -6.8760384
16.249857 1.3314909 -10.382652
16.342485 1.9295243 -10.418589
16.397659 2.5352792 -10.473893
16.426267 3.056653 -10.530528
16.523646 3.549294 -10.524353
16.646824 4.0364685 -10.50178
16.772768 4.5280899 -10.468555
16.872175 5.0437515 -10.417515
16.965912 5.5728202 -10.360768
17.06781 6.1441339 -10.280229
17.177313 6.7820819 -10.200812
17.335137 7.5230804 -10.120926
17.513756 8.3670486 -10.02354
17.686208 9.3679741 -9.8533905
17.836697 10.356105 -9.7148127
17.996422 11.32633 -9.5677302
18.16444 12.267201 -9.3962523
18.277087 13.061516 -9.2820978
18.382432 13.745065 -9.1645656
18.456606 14.356916 -9.0173975
18.515571 14.918228 -8.8875114
18.542315 15.454083 -8.7600928
18.572614 15.985071 -8.6249743
[...]
POINT_DATA 900
VECTORS normals float
0.90057676 -0.27094672 -0.33992556
0.90310579 -0.25140135 -0.34813401
0.90643611 -0.23791916 -0.34895279
0.90752855 -0.23309446 -0.34936928
0.90751001 -0.22830918 -0.35256276
0.90957126 -0.22222272 -0.351137
0.91092939 -0.2129688 -0.35334394
0.91342114 -0.20481161 -0.35173004
0.91402732 -0.18926883 -0.35879153
0.91432181 -0.18426482 -0.36064123
0.91205736 -0.17455242 -0.37105636
0.90684089 -0.1643216 -0.38812112
0.90796392 -0.14894256 -0.39168564
0.90895592 -0.1288004 -0.39649666
0.90707182 -0.12816708 -0.40099116
0.91059155 -0.11570685 -0.39678073
0.91050394 -0.10505841 -0.39993162
0.90251148 -0.09987642 -0.41892449
0.91273934 -0.098012592 -0.39661118
0.90512435 -0.091776386 -0.41512288
0.90523587 -0.080885346 -0.41713977
0.90503743 -0.065169972 -0.42030955
0.89549736 -0.036162664 -0.44359524
0.89242904 -0.0021182794 -0.45118279
0.89956425 0.021793515 -0.43624442
0.89757062 0.058117712 -0.43702325
0.89253286 0.10039007 -0.43966684
0.86967645 0.1672017 -0.4644421
0.85150292 0.209996 -0.48046275
0.83728967 0.27355138 -0.47340855
0.88822224 -0.2649132 -0.37534283
0.89212539 -0.24630814 -0.37874079
0.89480635 -0.23324034 -0.38068429
0.89587656 -0.2315238 -0.37921224
0.89688951 -0.22405189 -0.38130035
0.89750343 -0.21674202 -0.38407095
0.89861262 -0.20884814 -0.38584689
0.90021234 -0.1947407 -0.38947889
0.8992409 -0.17907586 -0.39912109
0.89557316 -0.16940317 -0.4114016
0.88893689 -0.15829828 -0.42980561
0.88407983 -0.14740651 -0.44347962
0.88509086 -0.13196642 -0.44631719
0.88076824 -0.11958982 -0.45819819
0.87874432 -0.11309475 -0.46370033
0.87992215 -0.10357029 -0.46369193
0.88334993 -0.089187932 -0.46015043
0.88065006 -0.08434662 -0.46619859
0.87743811 -0.085542329 -0.47200093
0.86914866 -0.074090266 -0.48896957
0.8595406 -0.06230166 -0.50725581
0.8584631 -0.039123902 -0.51138089
0.85084226 -0.011864517 -0.52528723
0.84332268 0.017101 -0.53713538
0.84644653 0.042766351 -0.53075354
0.84956231 0.08655463 -0.52033852
0.83886843 0.12724185 -0.5292535
0.8387717 0.17483696 -0.51564917
0.82825295 0.2200976 -0.51531941
0.81426361 0.27683747 -0.51023112
0.87937179 -0.25954963 -0.39917319
0.88407999 -0.24509161 -0.39791037
0.88833317 -0.23421946 -0.39497522
0.88840792 -0.22831543 -0.39825046
0.88875032 -0.21796321 -0.40325539
0.88907921 -0.21037033 -0.40654949
0.88829318 -0.19942107 -0.4137227
0.88756848 -0.18388349 -0.42238497
0.88552617 -0.1669209 -0.43356754
0.88291462 -0.15860105 -0.44193606
0.87644036 -0.1521934 -0.45682542
0.8728366 -0.1340085 -0.46925259
0.87138442 -0.11937211 -0.4758566
0.86586685 -0.1111279 -0.48777576
0.86500453 -0.10831501 -0.48993368
0.86203179 -0.09316977 -0.4982174
0.8555902 -0.082032798 -0.51111254
0.84859063 -0.074409331 -0.52379117
0.84172611 -0.069173496 -0.53545512
0.82887939 -0.055340329 -0.55668339
0.82621955 -0.037255549 -0.562115
0.81537778 -0.017220066 -0.5786731
0.81649442 0.012391897 -0.57722032
0.8148844 0.035597687 -0.57852936
0.81082071 0.070861994 -0.58098912
0.80623407 0.10272989 -0.58260895
0.79833556 0.14635494 -0.58415799
0.78633934 0.18856444 -0.58831446
0.7798537 0.22929058 -0.58245518
0.76278772 0.28520244 -0.58035719
0.87014586 -0.25465869 -0.42189469
0.87363982 -0.24007814 -0.42322093
0.8771313 -0.22879522 -0.42224806
0.87725777 -0.21796991 -0.42767737
0.87642206 -0.21169362 -0.4325161
0.87576892 -0.20028514 -0.43922051
0.87300105 -0.18678971 -0.45053165
0.87094415 -0.16928385 -0.46130172
0.87066617 -0.15410887 -0.46710907
0.8680227 -0.14668389 -0.47436318
0.86126062 -0.13696437 -0.48935764
0.85546686 -0.11871116 -0.50406756
0.85241524 -0.10530679 -0.51215109
0.84696983 -0.097500296 -0.52262395
0.84365564 -0.091830885 -0.52897283
0.83949298 -0.081792934 -0.53717917
0.83364211 -0.067547816 -0.54815884
0.82638598 -0.058648305 -0.56004159
0.81543702 -0.054169026 -0.57630564
0.80905713 -0.041056525 -0.58629423
0.80267875 -0.020269467 -0.59606708
0.79268375 0.0046152615 -0.6096156
0.78974053 0.025899746 -0.61289404
0.78330111 0.055077704 -0.61919772
0.77378421 0.088876735 -0.62718332
0.76542313 0.12853624 -0.63055996
0.75939088 0.16245556 -0.63002674
0.74762563 0.20521624 -0.63161872
0.7316457 0.23932944 -0.63829146
0.73710195 0.28519211 -0.61265503
0.8598405 -0.24480511 -0.4480455
0.86032534 -0.22861335 -0.45560536
0.86242119 -0.21914595 -0.45629458
0.8617306 -0.2078307 -0.46284638
0.85847965 -0.19830845 -0.47295501
0.85799376 -0.18856319 -0.47779769
0.85564103 -0.16559311 -0.4903645
0.85500282 -0.15779002 -0.49403693
0.8490529 -0.14266679 -0.50868001
0.84842747 -0.12971419 -0.51317157
0.84197621 -0.11696286 -0.52668372
0.83734952 -0.11034039 -0.53541645
0.83125889 -0.095272687 -0.54766027
0.83078531 -0.08502997 -0.5500597
0.8223341 -0.077453268 -0.56370881
0.81538507 -0.069427716 -0.57474079
0.80869154 -0.054996976 -0.58565632
0.80491433 -0.048811297 -0.59138006
0.79502422 -0.037414087 -0.60542272
0.7849946 -0.022507231 -0.61909361
0.7776274 0.00029509162 -0.62872533
0.77146738 0.02516461 -0.63577105
0.7627058 0.050415731 -0.64477757
0.75868989 0.076549256 -0.64693884
0.74943937 0.1087699 -0.65307713
0.74139519 0.14675759 -0.65482469
0.73233639 0.19003347 -0.65388889
0.72316989 0.21991317 -0.65472399
0.70887031 0.25720473 -0.65677136
0.69200752 0.31657463 -0.64877276
0.84222931 -0.2301938 -0.48750447
0.84155562 -0.21556201 -0.49529502
0.83915643 -0.20678424 -0.50304747
0.83860535 -0.19234442 -0.50965154
0.83348728 -0.18163911 -0.52182966
0.83090986 -0.17032274 -0.52969705
0.82853792 -0.15420601 -0.53828007
0.82841077 -0.1393617 -0.54250706
0.82499873 -0.12733095 -0.55060323
0.81936667 -0.11497351 -0.56162207
0.81567058 -0.10399586 -0.56909259
0.80937134 -0.095497951 -0.57948095
0.80685919 -0.079470122 -0.58537402
0.80002538 -0.066686718 -0.5962485
0.79023228 -0.0652923 -0.60931918
0.78355494 -0.055669715 -0.61882352
0.78432887 -0.048295413 -0.61846243
0.77624153 -0.037185532 -0.629338
0.76883614 -0.019318397 -0.63915396
0.76256899 -0.0020509345 -0.64690365
0.75616589 0.023047361 -0.65397397
0.74442597 0.044460531 -0.66622312
0.73802998 0.067212763 -0.67141209
0.72763825 0.10028511 -0.6785908
0.72255425 0.13529045 -0.67794678
0.7145867 0.17032999 -0.67849359
0.70266659 0.20955774 -0.67995971
0.69000856 0.24184846 -0.68220049
0.65810544 0.30341215 -0.68908511
0.62532495 0.36977087 -0.6871959
0.81541794 -0.21095699 -0.53906468
0.81222268 -0.19432961 -0.55002757
0.81466699 -0.18882636 -0.54832681
0.81315821 -0.17715098 -0.55442876
0.80487166 -0.15700694 -0.57230275
0.80113764 -0.15134789 -0.57902702
0.79469931 -0.13871435 -0.59094106
0.7922231 -0.12583018 -0.59711751
0.78556475 -0.10744809 -0.60937914
0.78229783 -0.095180072 -0.61558985
0.77923097 -0.077435318 -0.62193477
0.77764098 -0.074043094 -0.62433334
0.7696462 -0.06180689 -0.63547198
0.76405926 -0.052386565 -0.64301562
0.75636598 -0.047188455 -0.65244444
0.75407403 -0.044176537 -0.65530206
0.75035745 -0.036821061 -0.66000599
0.74340584 -0.020270244 -0.66853337
0.73637562 5.1528435e-06 -0.67657294
0.72709634 0.024918523 -0.68608307
0.72274473 0.048766347 -0.68939241
0.71342555 0.071626143 -0.69706074
0.70869341 0.091440062 -0.69956585
0.6958311 0.12631622 -0.70701011
0.6833278 0.15955707 -0.7124638
0.67610273 0.1956092 -0.71036761
0.65838899 0.2386929 -0.71382746
0.6332447 0.28793638 -0.71839668
0.60977101 0.3376205 -0.71707163
0.56544011 0.41652838 -0.71188594
0.77064534 -0.18303985 -0.61041147
0.77458372 -0.17106719 -0.60889743
0.77274947 -0.15985117 -0.61425228
0.77042703 -0.14937897 -0.6197807
0.76147063 -0.13912005 -0.63309406
0.75645344 -0.12918939 -0.64116167
0.75169439 -0.12325963 -0.64789089
0.74822074 -0.11166889 -0.65398454
0.74813711 -0.092625632 -0.65704746
0.74410617 -0.07432603 -0.66391389
0.74055325 -0.060540981 -0.66926503
0.73816935 -0.052084953 -0.67260179
0.73652855 -0.045618094 -0.67486642
0.73458355 -0.041092366 -0.67727279
0.72905048 -0.038029258 -0.68340264
0.72524606 -0.031780221 -0.68775589
0.72239783 -0.024775347 -0.69103369
0.71597998 -0.0047783936 -0.69810446
0.70816274 0.028001394 -0.70549377
0.69771308 0.058036975 -0.71402253
0.68929568 0.074405409 -0.72064923
0.68001227 0.09718289 -0.72673158
0.66755251 0.12270988 -0.73438133
0.65914964 0.14503029 -0.73789428
0.6472896 0.17894928 -0.74094084
0.63178987 0.22229073 -0.74258224
0.61546356 0.2754609 -0.73846184
0.59060784 0.32497554 -0.73862932
0.55532592 0.39045265 -0.73427505
0.50926214 0.46533978 -0.72395509
0.73396834 -0.15912753 -0.66027941
0.73254027 -0.14141125 -0.66587357
0.7260071 -0.13609201 -0.67408653
0.72312061 -0.12992108 -0.67839302
0.72300133 -0.11839799 -0.68062544
0.72216267 -0.11490331 -0.68211312
0.71774247 -0.10091111 -0.68895768
0.71590476 -0.090452136 -0.69231408
0.71253979 -0.07203108 -0.69792447
0.71538609 -0.057131901 -0.69638975
0.71032592 -0.045440982 -0.70240459
0.70968372 -0.039649813 -0.7034038
0.70780475 -0.035114978 -0.70553482
0.7097544 -0.027205453 -0.70392369
0.70871198 -0.028784465 -0.70491047
0.70426266 -0.02399397 -0.70953392
0.7013644 -0.012267961 -0.71269732
0.68863099 0.013572776 -0.72498492
0.68017317 0.052822197 -0.73114586
0.6715706 0.079236879 -0.73669156
0.66159976 0.10382899 -0.74263403
0.64988287 0.1225578 -0.75008789
0.63994086 0.14329375 -0.75494543
0.62843613 0.17230987 -0.75853631
0.61402604 0.21245233 -0.76015527
0.59582818 0.25638761 -0.7610875
0.56898443 0.31679475 -0.75887931
0.53311577 0.36976557 -0.76096057
0.48874059 0.44213137 -0.75209873
0.4590798 0.49716635 -0.73625496
0.70266546 -0.14034304 -0.69754217
0.70091105 -0.12765417 -0.70173222
0.69891244 -0.12269929 -0.70460364
0.6950534 -0.11788244 -0.7092281
0.69746114 -0.11240377 -0.70775233
0.6973591 -0.098571565 -0.70991121
0.69842818 -0.089472466 -0.71006532
0.6952653 -0.073157846 -0.71502035
0.69597853 -0.05625681 -0.71585547
0.6968598 -0.045626872 -0.71575457
0.6957228 -0.040740877 -0.71715407
0.69482901 -0.036113718 -0.71826767
0.69413197 -0.030293095 -0.71921008
0.69239602 -0.019684188 -0.72124911
0.69228932 -0.019467096 -0.72135742
0.68943321 -0.013656901 -0.7242205
0.67953061 0.00052800637 -0.73364696
0.669453 0.029584509 -0.74226507
0.6591292 0.073496941 -0.74842962
0.64932323 0.10467918 -0.75327393
0.64138788 0.12557269 -0.75687058
0.6353079 0.14205376 -0.75908142
0.62046254 0.17087851 -0.76539321
0.6078926 0.19779819 -0.76898795
0.58416998 0.2417737 -0.77478443
0.55455729 0.29312009 -0.77881116
0.51570433 0.36849641 -0.77347233
0.47056438 0.41955691 -0.77623525
0.43311568 0.48618766 -0.75896796
0.39073357 0.54976393 -0.7383
0.68947672 -0.13162696 -0.71224729
0.69119715 -0.12137054 -0.71240135
0.68815591 -0.11510857 -0.71637382
0.68539709 -0.11372613 -0.71923376
0.68548137 -0.10330391 -0.72072436
0.6843943 -0.089482694 -0.72360023
0.68236765 -0.078296271 -0.72680402
0.68133189 -0.060845317 -0.72944136
0.67973288 -0.048330925 -0.73186565
0.6838017 -0.040804389 -0.72852607
0.68565153 -0.040075551 -0.72682593
0.68348705 -0.034140049 -0.72916384
0.68380435 -0.026319238 -0.72919058
0.6806661 -0.013148651 -0.73247578
0.6749726 -0.0093431105 -0.73778363
0.67165206 -0.00083642021 -0.74086626
0.65695235 0.014009932 -0.75380191
0.64911658 0.051602979 -0.75893662
0.64065066 0.090101863 -0.76252763
0.63601228 0.11832334 -0.76255359
0.62995951 0.14330819 -0.76329141
0.61924767 0.1620606 -0.76828945
0.60521155 0.18801152 -0.77354422
0.58713535 0.21763562 -0.7796838
0.5563997 0.2629873 -0.78819861
0.51677576 0.33453627 -0.78805349
0.47521759 0.40279771 -0.7822546
0.42053866 0.46781092 -0.77736747
0.36994299 0.52092907 -0.7692692
0.33321445 0.57605764 -0.74640855
0.67957036 -0.12830987 -0.72230236
0.6812573 -0.1204803 -0.72206162
0.67956673 -0.10649164 -0.72584337
0.67442212 -0.10308948 -0.73111378
0.67437119 -0.08706802 -0.7332412
0.67033953 -0.074595828 -0.73829559
0.66737856 -0.065538968 -0.74182916
0.66517742 -0.054759544 -0.74467469
0.66778594 -0.046082094 -0.74292555
0.67004694 -0.038065123 -0.74134212
0.67141824 -0.038270553 -0.7400898
0.67272804 -0.030612502 -0.73925629
0.67096836 -0.020484769 -0.74120296
0.66335035 -0.0019965576 -0.74830631
0.65998701 0.001997664 -0.75127436
0.65306704 0.013967958 -0.75717127
0.63704274 0.031838494 -0.77017067
0.6233073 0.070718222 -0.77877272
0.62093524 0.10375237 -0.77696517
0.61849268 0.13084684 -0.77481992
0.61378956 0.15357267 -0.77438867
0.60333155 0.17867589 -0.77721681
0.58220441 0.20842594 -0.78587318
0.55842224 0.24908877 -0.79127706
0.51952181 0.30805256 -0.7969948
0.48458131 0.37537611 -0.79010995
0.42577916 0.45084691 -0.78450569
0.36262608 0.52221742 -0.77187518
0.32155111 0.55528669 -0.76698212
0.28452474 0.6016744 -0.74634683
0.6689962 -0.1317352 -0.73149841
0.66863844 -0.1155934 -0.73454803
0.66757461 -0.098277169 -0.73802828
0.66693634 -0.085012559 -0.74024913
0.66638146 -0.070266328 -0.74229266
0.66060647 -0.059597524 -0.74836303
0.65698759 -0.053644769 -0.75199039
0.65135617 -0.047525269 -0.75728231
0.65305998 -0.043872728 -0.75603429
0.65492578 -0.038148981 -0.75472967
0.65649662 -0.034340805 -0.75354688
0.65919144 -0.025957069 -0.75152703
0.65823989 -0.011099436 -0.75272641
0.64736848 0.011503515 -0.76209036
0.64222069 0.016274629 -0.766347
0.63263326 0.026279642 -0.77400552
0.61951945 0.047910213 -0.78351787
0.60408007 0.083851681 -0.79249995
0.60101342 0.12130543 -0.78997966
0.59352429 0.14083065 -0.79239867
0.58386602 0.17435335 -0.79290692
0.57046186 0.20652857 -0.79493347
0.54402113 0.24275558 -0.80318786
0.51355933 0.29896034 -0.80428821
0.46702536 0.37206957 -0.80215432
0.42344999 0.4294443 -0.7976639
0.34719108 0.51117686 -0.78622934
0.3015036 0.55489274 -0.77536419
0.27252942 0.58333481 -0.76514588
0.24227919 0.62325155 -0.74354442
0.65918044 -0.12773907 -0.74105592
0.65829295 -0.10961692 -0.74473789
0.65867011 -0.090954061 -0.74691435
0.65752041 -0.075797199 -0.74961436
0.6549148 -0.06159086 -0.75318867
0.65194343 -0.045105787 -0.75692485
0.64711216 -0.041824461 -0.76124672
0.64261501 -0.036756025 -0.76530709
0.64117353 -0.036021942 -0.76655002
0.64164344 -0.03485834 -0.76621054
0.64135589 -0.031983745 -0.76657659
0.64301946 -0.018919458 -0.76561611
0.64320908 -0.0032617086 -0.76568364
0.63874542 0.019517631 -0.76917056
0.62515328 0.031953125 -0.77984766
0.61376263 0.042242345 -0.7883597
0.59814535 0.064501769 -0.79878762
0.58436792 0.096497083 -0.805731
0.57142713 0.14033808 -0.80856432
0.56395151 0.16688376 -0.80876975
0.55239377 0.19401135 -0.81069151
0.53448088 0.23036037 -0.81318158
0.50378243 0.28605247 -0.8150934
0.45973801 0.35058411 -0.81592386
0.41632575 0.41840239 -0.80722507
0.3395005 0.48813637 -0.80402879
0.29393826 0.54848109 -0.7827955
0.24921488 0.58744439 -0.76993574
0.22749998 0.61054118 -0.75860611
0.19800674 0.64546623 -0.73767654
0.65115703 -0.12406204 -0.74873435
0.65119813 -0.10723173 -0.75129379
0.65006521 -0.087415581 -0.75483358
0.64934483 -0.070840416 -0.75718751
0.64690215 -0.050020689 -0.7609307
0.64487394 -0.037975117 -0.76334494
0.6398945 -0.030977523 -0.76783815
0.63677549 -0.027266552 -0.770567
0.63658738 -0.02900889 -0.7706588
0.63330805 -0.031867563 -0.77324341
0.63098752 -0.029728386 -0.77522318
0.6330767 -0.016088612 -0.77392186
0.63181683 0.0053932229 -0.77509897
0.62398348 0.031361924 -0.78080794
0.61076989 0.046213007 -0.79045841
0.59794839 0.051984503 -0.79984707
0.57806551 0.075472775 -0.81249254
0.55320352 0.11668839 -0.82483313
0.54534488 0.15759493 -0.8232635
0.53486395 0.18495059 -0.82444759
0.51643443 0.21708997 -0.82835224
0.49039098 0.26502948 -0.83022651
0.45589605 0.32519508 -0.8284968
0.40630172 0.38702665 -0.82772537
0.3479102 0.47331798 -0.80927658
0.30176382 0.52651443 -0.79480888
0.25329892 0.57601047 -0.77720756
0.21675003 0.61115356 -0.76125604
0.18672544 0.63663012 -0.74822169
0.15199673 0.67839877 -0.71879907
0.64651389 -0.1188483 -0.753588
0.64526112 -0.10239876 -0.75706841
0.64485365 -0.080475072 -0.76005758
0.64337069 -0.060661183 -0.76314768
0.641098 -0.044303613 -0.76617919
0.63840171 -0.0320868 -0.76903426
0.63594681 -0.023239442 -0.77138291
0.63579422 -0.021777529 -0.77155133
0.63338391 -0.021890205 -0.77352804
0.62928508 -0.023150118 -0.77682969
0.62402092 -0.022141257 -0.78109388
0.62377297 -0.0073427666 -0.78157109
0.6227685 0.012579727 -0.78230502
0.61293664 0.043989786 -0.78890657
0.59934172 0.068505934 -0.79755654
0.58527983 0.071583589 -0.80766535
0.55989148 0.097199602 -0.82284492
0.51972184 0.1368098 -0.84331031
0.5034366 0.17714567 -0.84567783
0.49527872 0.2150776 -0.84168914
0.46425567 0.25416439 -0.84844984
0.42824673 0.30740328 -0.84976936
0.38725459 0.38308875 -0.83861606
0.34067113 0.45049406 -0.8252262
0.3020593 0.51209805 -0.80406204
0.25326559 0.5609243 -0.78817541
0.21024723 0.60209132 -0.77024811
0.18144335 0.62939176 -0.75560858
0.14442654 0.66027075 -0.73700984
0.10746995 0.70245346 -0.70356901
0.63890881 -0.11548275 -0.7605651
0.63919032 -0.097713421 -0.76281572
0.64046617 -0.072400834 -0.76456603
0.63857778 -0.049543233 -0.76796086
0.63813036 -0.037660807 -0.76900671
0.63528208 -0.025820382 -0.77184842
0.63363835 -0.021099637 -0.77334161
0.63221129 -0.014898773 -0.77465276
0.63077955 -0.013550733 -0.77584376
0.62517505 -0.016266803 -0.78031503
0.61950356 -0.0092809826 -0.78493898
0.61444283 -0.0011796885 -0.78896046
0.61015951 0.022954746 -0.79194599
0.59783903 0.057942391 -0.79951934
0.58872567 0.08719964 -0.80361577
0.57269806 0.10272871 -0.81330421
0.54799269 0.12939217 -0.82641495
0.50202677 0.16230359 -0.84948612
0.47996104 0.1954789 -0.85523412
0.44528134 0.24818543 -0.86030722
0.4177067 0.29054435 -0.86087461
0.37770284 0.35699684 -0.85433823
0.34415384 0.41558114 -0.84193257
0.30161159 0.47576285 -0.82624461
0.25312288 0.54503235 -0.79929253
0.21340388 0.58703448 -0.78092849
0.17998275 0.62208317 -0.76198343
0.14985402 0.65133081 -0.74384942
0.11141759 0.67920902 -0.72543865
0.077847558 0.72136514 -0.68816575
0.63335735 -0.11672167 -0.76500622
0.63678684 -0.09556122 -0.76509514
0.63811631 -0.064601535 -0.76722501
0.63687419 -0.043712443 -0.76972754
0.63480028 -0.028498121 -0.77215054
0.63324769 -0.022096682 -0.7736337
0.62980915 -0.015658898 -0.77659206
0.6281559 -0.0095615583 -0.77802876
0.62490094 -0.0075405159 -0.78066763
0.62028303 -0.0026203549 -0.7843737
0.6162358 0.0010945514 -0.78756095
0.60819665 0.013608867 -0.79366972
0.59837639 0.040112658 -0.80021039
0.59148953 0.063009424 -0.80384697
0.57139951 0.099505626 -0.81461723
0.56090118 0.12606565 -0.81822816
0.53123466 0.16642199 -0.83071864
0.48547196 0.20658142 -0.84949461
0.44622803 0.24499718 -0.86073046
0.41276083 0.28298864 -0.8657632
0.37824048 0.32528211 -0.86667508
0.33983474 0.39294109 -0.85446454
0.29687661 0.44257483 -0.84616299
0.25459277 0.51216428 -0.8202867
0.21564669 0.57223185 -0.79123145
0.18586119 0.60632971 -0.77318814
0.14954671 0.6424888 -0.75156099
0.11450347 0.68019374 -0.72403414
0.088777551 0.70193708 -0.70668443
0.050719544 0.74036941 -0.67028402
0.63059227 -0.11511028 -0.76753046
0.63174403 -0.089502662 -0.7699927
0.63445507 -0.059423548 -0.77067218
0.63273637 -0.037995998 -0.77343454
0.63276936 -0.023278543 -0.77399034
0.62964525 -0.014755274 -0.77674265
0.62478634 -0.0056797408 -0.78077511
0.62171298 -0.0031135205 -0.78323896
0.61826338 0.0070836352 -0.78593906
0.60784385 0.019095469 -0.79382694
0.6037358 0.021156102 -0.7969037
0.59164504 0.036291555 -0.80538132
0.58470127 0.05597272 -0.80931544
0.57185597 0.081432224 -0.81630236
0.55410744 0.11718199 -0.82415613
0.54549348 0.14590409 -0.82531743
0.5218041 0.19512323 -0.83045012
0.47541344 0.23363451 -0.84817273
0.42500107 0.28157229 -0.8602855
0.39034508 0.31520812 -0.86502864
0.35007977 0.35951413 -0.86498193
0.31018924 0.42309331 -0.851337
0.26692955 0.46963966 -0.84153859
0.22369772 0.54065919 -0.81095436
0.17948353 0.58745955 -0.78909882
0.1565285 0.62708456 -0.76306211
0.12089635 0.66285078 -0.73892687
0.087675074 0.69708198 -0.71161071
0.064578721 0.72580061 -0.68486719
0.035407708 0.75710998 -0.6523272
0.62142138 -0.1226345 -0.77381926
0.62729857 -0.088192354 -0.77376909
0.62747711 -0.056804075 -0.77656022
0.62635078 -0.033620044 -0.77881602
0.62547982 -0.014668582 -0.78010245