# vtk DataFile Version 2.0
Grain example
ASCII
DATASET UNSTRUCTURED_GRID
POINTS 900 float
18.128629 -0.6015833 3.7854009
17.897151 -0.85543947 3.9800976
17.688202 -1.0935531 4.1986779
17.483572 -1.3280299 4.4320763
17.271886 -1.5689915 4.6519484
17.041683 -1.8654825 4.8352105
16.810782 -2.1938603 4.9895079
16.594102 -2.5315689 5.1152245
16.381851 -2.8879411 5.2001269
16.170421 -3.2530635 5.2691907
15.957082 -3.6491991 5.2677229
15.713595 -4.0858477 5.3151948
15.421971 -4.5691253 5.3765499
15.091823 -5.1007778 5.4153484
14.715581 -5.6690391 5.4576347
14.298385 -6.2677136 5.4841286
13.870541 -6.8789531 5.5158478
13.439459 -7.5058276 5.5423718
13.01741 -8.1229977 5.5143711
12.593987 -8.7441596 5.4789931
12.144455 -9.333827 5.4773492
11.705475 -9.8934252 5.4890879
11.26865 -10.427734 5.5134515
10.833667 -10.92454 5.5740151
10.378575 -11.43043 5.6634064
9.9174154 -11.939823 5.7469125
9.4784772 -12.413996 5.8099343
9.0236298 -12.842873 5.8637844
8.5545646 -13.274324 5.9227013
8.0173513 -13.739609 6.0883169
18.506097 -0.74084542 2.8249686
18.283326 -1.0526611 2.9910812
18.070969 -1.3111823 3.1633138
17.851128 -1.5789766 3.3392781
17.633901 -1.8788364 3.5270531
17.407956 -2.2248949 3.6904511
17.166987 -2.5671521 3.8583278
16.923608 -2.9300559 4.0046677
16.65442 -3.2931163 4.1344899
16.366149 -3.6841287 4.2576667
16.062743 -4.0970626 4.3637034
15.752657 -4.5617617 4.4203231
15.393986 -5.0861482 4.4759893
15.011104 -5.6496819 4.5114754
14.607125 -6.2363214 4.565444
14.165759 -6.8558534 4.6069533
13.720853 -7.4585806 4.6557508
13.262011 -8.0773424 4.6904058
12.811389 -8.6862788 4.7251954
12.353063 -9.266867 4.7671054
11.901894 -9.839416 4.784631
11.467647 -10.363963 4.8151983
11.032508 -10.855042 4.8750451
10.566076 -11.368353 4.9650138
10.067226 -11.900793 5.0892461
9.5389609 -12.433816 5.2191406
9.0117763 -12.940429 5.3325717
8.5123914 -13.405848 5.4354214
7.9961386 -13.813594 5.5988993
7.3908851 -14.236036 5.8818006
18.877589 -0.84790781 1.8705652
18.656269 -1.2061228 2.0298749
18.420117 -1.5316387 2.1687915
18.176646 -1.8518545 2.3052414
17.922986 -2.2045314 2.4536222
17.668704 -2.554228 2.6185498
17.409932 -2.912966 2.7694423
17.136609 -3.2946239 2.9198785
16.833424 -3.7030565 3.0587185
16.515065 -4.1294008 3.1882651
16.143507 -4.5843762 3.3142172
15.748215 -5.0909168 3.4256852
15.340836 -5.6205895 3.5024241
14.91413 -6.1801711 3.5770456
14.460238 -6.7766547 3.6740255
13.993866 -7.3909721 3.7482507
13.53007 -8.0043992 3.8089452
13.068103 -8.5993119 3.8749151
12.604911 -9.1731245 3.951012
12.137698 -9.7572457 4.017273
11.684454 -10.295575 4.0811123
11.242789 -10.789749 4.1644683
10.79022 -11.289365 4.2354369
10.270901 -11.814193 4.3738146
9.7324907 -12.33278 4.5260654
9.1635927 -12.840967 4.7037856
8.5978417 -13.334058 4.9286532
8.0251165 -13.80746 5.1448217
7.4291941 -14.264211 5.3999372
6.8132011 -14.764843 5.7680621
19.180449 -0.91417852 0.94603194
18.952533 -1.2964312 1.0814661
18.67985 -1.7463511 1.2157504
18.402925 -2.1518152 1.3245441
18.13552 -2.5178272 1.4458012
17.861403 -2.8764085 1.5933998
17.55935 -3.2593348 1.749362
17.235277 -3.6672911 1.899262
16.879714 -4.0896336 2.0238865
16.502211 -4.5470541 2.1521413
16.104269 -5.0394364 2.2751425
15.68884 -5.5546116 2.3986437
15.258291 -6.1115978 2.4951188
14.814723 -6.6886415 2.5818726
14.349259 -7.2927671 2.6837224
13.865268 -7.9191308 2.777975
13.3933 -8.4885498 2.8898758
12.908004 -9.0738544 3.0041553
12.426857 -9.6535375 3.1163
11.953367 -10.192504 3.2371718
11.490715 -10.700888 3.3670744
11.02584 -11.179576 3.4811696
10.502851 -11.675727 3.6462088
9.9652435 -12.163758 3.8484946
9.4006644 -12.643283 4.0669649
8.8392882 -13.125236 4.3098096
8.2192674 -13.638387 4.5637678
7.5800741 -14.159193 4.8627897
6.8785205 -14.755005 5.2679349
6.2240016 -15.278705 5.7105468
19.331784 -0.98035961 0.18899679
19.082453 -1.3845628 0.25497459
18.817216 -1.8676686 0.33683888
18.534969 -2.3653068 0.43048923
18.249505 -2.770208 0.52530376
17.930741 -3.1949707 0.66314196
17.588147 -3.6115138 0.78686573
17.219296 -4.0476467 0.88427548
16.842925 -4.4962276 1.0025966
16.453631 -4.9737452 1.129098
16.044165 -5.4753472 1.2487952
15.604603 -6.0007021 1.3565688
15.15024 -6.5843628 1.4729077
14.698267 -7.1874944 1.5785141
14.239415 -7.7751055 1.671764
13.771911 -8.365892 1.7934257
13.291921 -8.9455455 1.9135528
12.792856 -9.5362793 2.0456895
12.307045 -10.01197 2.2374834
11.821578 -10.474284 2.4357361
11.332637 -10.938716 2.6354263
10.800504 -11.423079 2.8605117
10.264255 -11.902548 3.0821215
9.6835808 -12.401572 3.362965
9.1063789 -12.89848 3.6423709
8.4921309 -13.416616 3.9201939
7.8374184 -13.951074 4.2471306
7.1560955 -14.536319 4.6148401
6.4160784 -15.158471 5.1116342
5.6069477 -15.735388 5.6462296
19.442644 -1.0488719 -0.55009677
19.194735 -1.5133264 -0.51834643
18.921715 -2.0029516 -0.47487352
18.622588 -2.5171313 -0.43198506
18.288585 -3.0447869 -0.37151782
17.926723 -3.5057211 -0.31076296
17.556039 -3.9698749 -0.21316419
17.181743 -4.4276978 -0.085919722
16.798413 -4.8940062 0.020353832
16.402655 -5.3845473 0.12145622
15.96197 -5.9068011 0.2333711
15.510641 -6.4419358 0.34218229
15.052525 -7.0039683 0.46523135
14.593066 -7.5571534 0.62101999
14.126473 -8.0964142 0.76893616
13.643242 -8.6564398 0.92726147
13.160018 -9.200506 1.0855326
12.677014 -9.6849615 1.2796648
12.202494 -10.158356 1.4694921
11.715111 -10.62613 1.6712077
11.187017 -11.108374 1.9134999
10.645294 -11.592458 2.20451
10.080995 -12.090301 2.5048672
9.4724231 -12.608987 2.8269151
8.8558004 -13.126227 3.1493508
8.1491094 -13.678679 3.5252649
7.4662 -14.294268 3.9478015
6.7518457 -14.898881 4.3834927
5.9331606 -15.506906 4.933812
5.081019 -16.107148 5.510939
19.53983 -1.0116067 -1.1984183
19.286115 -1.4933299 -1.1875302
18.977801 -2.035394 -1.1336586
18.638311 -2.5889429 -1.1222962
18.281966 -3.1487681 -1.1296035
17.897326 -3.6613692 -1.1171183
17.52911 -4.1313329 -1.0383924
17.147077 -4.6126719 -0.92425163
16.765799 -5.1094967 -0.80409589
16.335972 -5.6174768 -0.69770487
15.88064 -6.1434353 -0.60135321
15.413613 -6.6586098 -0.46908464
14.952276 -7.1605572 -0.33002069
14.472296 -7.705466 -0.17062129
13.990091 -8.2713058 -0.0013924457
13.505743 -8.8126438 0.17571822
13.032565 -9.2920585 0.3721873
12.55239 -9.7742652 0.57135484
12.081187 -10.245811 0.7765734
11.587737 -10.730503 1.0223359
11.053632 -11.234677 1.2988675
10.519796 -11.730194 1.59298
9.9231243 -12.244993 1.9084604
9.2889769 -12.779699 2.2830074
8.6029425 -13.319265 2.6503298
7.9148429 -13.929313 3.0864013
7.1641749 -14.568873 3.5534976
6.3718589 -15.194959 4.0912082
5.4904375 -15.815331 4.7414493
4.6344601 -16.420165 5.3497622
19.569955 -1.0210597 -1.8223745
19.273743 -1.5340762 -1.8308327
18.944021 -2.0764217 -1.8388679
18.597157 -2.6570626 -1.8235092
18.247913 -3.2396757 -1.8280199
17.859369 -3.7776236 -1.8254801
17.459821 -4.2509823 -1.7735577
17.080041 -4.7349412 -1.672369
16.668421 -5.238982 -1.5495365
16.230548 -5.7674341 -1.4272595
15.772681 -6.2754305 -1.2822572
15.312949 -6.7765659 -1.156391
14.853678 -7.2773802 -1.0202579
14.368103 -7.8149283 -0.86208185
13.881375 -8.3506823 -0.67446815
13.393924 -8.8630697 -0.43534697
12.924244 -9.3483428 -0.21414107
12.448282 -9.8273397 0.020862623
11.970502 -10.302945 0.2622927
11.458103 -10.801039 0.52452017
10.919485 -11.314279 0.81632395
10.371909 -11.82616 1.1067359
9.7830199 -12.363812 1.4143319
9.1267402 -12.913522 1.8024313
8.4217114 -13.507344 2.2524083
7.7084869 -14.137214 2.7225063
6.9288354 -14.788175 3.2216871
6.0900866 -15.394564 3.7868212
5.1863763 -16.032619 4.4803224
4.2930726 -16.658738 5.1687642
19.518513 -1.0372522 -2.3450927
19.219033 -1.565104 -2.36512
18.899323 -2.1201489 -2.4040711
18.546806 -2.689733 -2.4238941
18.182506 -3.2532629 -2.3820245
17.805024 -3.8239859 -2.330625
17.39733 -4.3333455 -2.3171963
16.999452 -4.8312682 -2.2520644
16.583947 -5.3453262 -2.1558914
16.138495 -5.8423915 -2.0143889
15.674792 -6.3567203 -1.8686906
15.227085 -6.8700536 -1.7221602
14.763343 -7.3783437 -1.5940007
14.276476 -7.886558 -1.4330598
13.797944 -8.3691357 -1.2155544
13.31957 -8.8711789 -0.96200406
12.840332 -9.3777962 -0.67197865
12.351313 -9.8675919 -0.42700194
11.867205 -10.346842 -0.18925815
11.335757 -10.855455 0.089079478
10.799967 -11.367729 0.3819075
10.230126 -11.894862 0.67339342
9.6311293 -12.434217 0.99503855
8.9550072 -13.009145 1.3805608
8.2742863 -13.647313 1.8681827
7.5123218 -14.304962 2.3854058
6.7003762 -14.954869 2.9119114
5.839667 -15.562929 3.5054895
4.9363493 -16.199391 4.2028319
4.0722399 -16.817389 4.9118749
19.471069 -1.0457606 -2.8220418
19.158881 -1.5951604 -2.8600647
18.817285 -2.145763 -2.8818801
18.465345 -2.6972213 -2.9001455
18.104317 -3.2605562 -2.8991473
17.727624 -3.8370219 -2.8577011
17.340276 -4.3937281 -2.8195568
16.895406 -4.9418965 -2.8073991
16.465393 -5.4282771 -2.7174507
16.039454 -5.9180737 -2.5917766
15.579677 -6.4320315 -2.4442923
15.127587 -6.9516546 -2.2944152
14.663738 -7.4672542 -2.1338493
14.195117 -7.9168591 -1.9512697
13.726422 -8.3775251 -1.7127721
13.252038 -8.870295 -1.4450531
12.764543 -9.3807745 -1.1528125
12.26413 -9.8975101 -0.86067182
11.77181 -10.382735 -0.61102766
11.235953 -10.895131 -0.32443921
10.688367 -11.414677 -0.025670327
10.105175 -11.945741 0.26973204
9.4913099 -12.491721 0.61080777
8.8074802 -13.101814 1.0308191
8.1157381 -13.766299 1.505758
7.3218221 -14.44628 2.0282237
6.4695743 -15.098172 2.6206964
5.607798 -15.708382 3.2316584
4.7080502 -16.343439 3.9380892
3.8791539 -16.94693 4.6439497
19.405008 -1.0751324 -3.3025601
19.069181 -1.6091862 -3.3285157
18.728577 -2.1506225 -3.3539848
18.371031 -2.7128428 -3.3563864
18.008016 -3.2730936 -3.3645602
17.644098 -3.8507672 -3.3617222
17.258986 -4.4591142 -3.3393531
16.804971 -4.9802174 -3.3016375
16.355394 -5.496435 -3.2346636
15.919462 -5.9984618 -3.115536
15.492736 -6.4973203 -2.9915212
15.039496 -7.0113362 -2.8325985
14.586898 -7.4675108 -2.605283
14.129448 -7.9262232 -2.3739216
13.670042 -8.374407 -2.1590198
13.187233 -8.8663066 -1.8980364
12.69483 -9.3762085 -1.6094742
[...]
POINT_DATA 900
VECTORS normals float
0.82575226 -0.36008983 0.4341296
0.8250829 -0.35835526 0.43682916
0.82025198 -0.36868358 0.4373318
0.82367208 -0.36528679 0.43373941
0.82183217 -0.36785206 0.43505947
0.82020525 -0.37171549 0.43484588
0.82290782 -0.37856972 0.42368347
0.82707825 -0.38427512 0.41021239
0.8280816 -0.39757166 0.39524378
0.82663286 -0.40449027 0.39123617
0.82527591 -0.42135574 0.37600401
0.82303119 -0.43228319 0.3684439
0.81598967 -0.46040024 0.34956042
0.8134316 -0.47928717 0.32956462
0.81016062 -0.50119064 0.30405217
0.80859367 -0.51852249 0.27804803
0.8076485 -0.52899301 0.26051927
0.80268326 -0.54472896 0.24283729
0.79698754 -0.56404873 0.21600902
0.78769407 -0.58237716 0.20093503
0.77235403 -0.60816136 0.18332763
0.75363847 -0.63351207 0.17518992
0.73745776 -0.65488768 0.16516105
0.72911509 -0.6660885 0.15721734
0.72827696 -0.66851848 0.15065098
0.72190953 -0.67743096 0.14118753
0.70410258 -0.69695238 0.13600343
0.68947309 -0.71316976 0.12655335
0.67543307 -0.72736449 0.12137161
0.66495274 -0.73620388 0.12586383
0.83333459 -0.40627266 0.37482794
0.83120609 -0.40999092 0.37550482
0.82922118 -0.41146991 0.37826544
0.82745836 -0.4144982 0.3788191
0.82497726 -0.41876269 0.37953962
0.82521615 -0.42263148 0.37470113
0.82799027 -0.42010611 0.37140675
0.82643125 -0.42833753 0.36542899
0.82554866 -0.43708009 0.35697395
0.82310276 -0.45127538 0.34474975
0.82119125 -0.46518519 0.33052634
0.81519621 -0.48641247 0.31441699
0.81019488 -0.51058163 0.28790737
0.8076837 -0.52671094 0.26499552
0.80465043 -0.53944112 0.24807451
0.80376374 -0.55017323 0.22643601
0.80124453 -0.55966153 0.21162745
0.79662092 -0.5718334 0.19596347
0.78647 -0.58937469 0.18466838
0.77225651 -0.61036331 0.17628531
0.7537489 -0.63601336 0.16537715
0.73668531 -0.65711045 0.15968911
0.72546107 -0.67151945 0.15089025
0.72176295 -0.67881603 0.13515564
0.71565348 -0.68781697 0.12144098
0.70103235 -0.7048055 0.10864095
0.68373963 -0.72274714 0.10068117
0.66883698 -0.73693569 0.097892251
0.66092459 -0.74487336 0.091336488
0.65202656 -0.75001134 0.11110517
0.84543786 -0.42912977 0.31793468
0.83828438 -0.443741 0.31681735
0.83201935 -0.45084672 0.32323526
0.8288633 -0.45798111 0.32130816
0.8252919 -0.46575434 0.31932144
0.82089981 -0.47326099 0.31960528
0.81695644 -0.48161814 0.31721623
0.81721067 -0.48650698 0.30899462
0.81401788 -0.49758547 0.2996391
0.80888958 -0.51243081 0.28829205
0.80228995 -0.52967326 0.27527636
0.80029288 -0.54350722 0.2532414
0.79734317 -0.55515525 0.23674147
0.79638596 -0.56203452 0.22335306
0.79716233 -0.56598375 0.21022515
0.79814029 -0.5689857 0.19805895
0.79413256 -0.57778516 0.18846163
0.78624868 -0.59149896 0.17872325
0.77149389 -0.61327152 0.16939663
0.75575223 -0.63581056 0.15679124
0.73816817 -0.65820534 0.1478969
0.72516966 -0.67469707 0.13752392
0.71164486 -0.69238293 0.11902719
0.70698364 -0.69965472 0.1032347
0.69677775 -0.71189032 0.087823349
0.68133579 -0.7281647 0.074550122
0.66831769 -0.74026139 0.073243039
0.6606144 -0.74788927 0.06519388
0.65317212 -0.75326375 0.077200487
0.63602509 -0.76572492 0.095589911
0.85445551 -0.4528277 0.25466222
0.84812806 -0.46128569 0.26056534
0.83900948 -0.47595846 0.26367905
0.83243162 -0.48780782 0.26287095
0.82352162 -0.50339948 0.26153604
0.82016058 -0.50943758 0.26040347
0.80992281 -0.52740672 0.25664605
0.80438815 -0.53985803 0.24801817
0.79881969 -0.55164879 0.239939
0.79555029 -0.56031025 0.23054751
0.7890847 -0.57319231 0.22089797
0.78671438 -0.57840343 0.21570804
0.78733765 -0.58087328 0.20660507
0.78742768 -0.58406214 0.19705093
0.78968384 -0.58368701 0.18896804
0.78853055 -0.59007046 0.17331019
0.78415168 -0.59974668 0.15940534
0.77005291 -0.62042081 0.14864902
0.75086258 -0.64690454 0.1331161
0.73423837 -0.66782119 0.12210191
0.71789824 -0.68749606 0.1094134
0.70622943 -0.70148068 0.095733211
0.69549199 -0.71416638 0.079102883
0.69052148 -0.72018479 0.067185962
0.678909 -0.73205533 0.056369907
0.66635682 -0.74423899 0.0455732
0.65916455 -0.75091889 0.040285377
0.65288762 -0.75583836 0.049458402
0.63715739 -0.76830053 0.061194465
0.61850428 -0.78195429 0.07745936
0.86281653 -0.46530362 0.19758588
0.85459175 -0.48131512 0.19495819
0.84543049 -0.4956868 0.19885142
0.83357512 -0.51252174 0.20609219
0.82380239 -0.52615275 0.21098083
0.81314732 -0.54583961 0.20211519
0.80474579 -0.55717597 0.2047905
0.79696989 -0.57083997 0.19743538
0.79009198 -0.58452344 0.18462671
0.78724795 -0.58962424 0.18051017
0.78272114 -0.59733645 0.17474778
0.77786175 -0.60405968 0.17332917
0.77656003 -0.60689559 0.1692107
0.77602711 -0.61311724 0.14788232
0.77606851 -0.61690849 0.13092583
0.77495054 -0.6219618 0.11231734
0.76538098 -0.63768951 0.086856452
0.74587309 -0.66172308 0.076130768
0.72916616 -0.68099043 0.067592518
0.71252013 -0.69825909 0.068915215
0.69992168 -0.7111303 0.066357653
0.68567285 -0.72564531 0.057372737
0.67891209 -0.73278801 0.045826922
0.67368533 -0.73818654 0.035053113
0.65960855 -0.75109059 0.027919339
0.65441354 -0.75582358 0.021763213
0.65275791 -0.75726549 0.021355976
0.64084244 -0.76706196 0.030609173
0.61726905 -0.7852537 0.048533892
0.59299671 -0.80253704 0.065492004
0.87044524 -0.47308568 0.13606994
0.86170914 -0.48837266 0.13765716
0.85161327 -0.50754872 0.13095468
0.83763906 -0.53130807 0.12677753
0.82005762 -0.55790011 0.1274871
0.80610887 -0.57921734 0.12122608
0.7965442 -0.59198245 0.12277671
0.78769937 -0.60545933 0.11379242
0.7829557 -0.6123446 0.1096105
0.783091 -0.61248953 0.10781959
0.77545567 -0.62299116 0.10271575
0.76732089 -0.63308179 0.10210825
0.76370825 -0.63751488 0.1016095
0.75893411 -0.64559585 0.085000082
0.75536094 -0.65222138 0.063538444
0.74949751 -0.66045311 0.045333989
0.74023836 -0.67197304 0.022347343
0.72798746 -0.68532963 0.018909171
0.7100186 -0.7041294 0.0086821772
0.69832879 -0.71568055 0.011758246
0.68246547 -0.73087835 0.0075970258
0.67350925 -0.73908952 0.011487818
0.66516803 -0.74653408 0.015438779
0.65684601 -0.75397786 0.0084088558
0.65060239 -0.75937877 0.0077720712
0.6496269 -0.76022872 0.0060973775
0.64225437 -0.76644221 0.0086983018
0.62439985 -0.7808629 0.019441189
0.60384649 -0.79654782 0.029681494
0.57428512 -0.81655293 0.058633671
0.88091047 -0.46921677 0.061906129
0.86989712 -0.48920259 0.062927215
0.85494344 -0.51540109 0.058595419
0.83815785 -0.5427345 0.054135765
0.81975304 -0.57047825 0.050591666
0.79864487 -0.59986288 0.048279318
0.78753785 -0.61457043 0.045687146
0.78476579 -0.61828901 0.043143418
0.77632326 -0.62876444 0.044468926
0.77339369 -0.63288147 0.036376427
0.76573033 -0.64163682 0.044263471
0.76116914 -0.64706104 0.043972081
0.74926299 -0.661755 0.026178141
0.74053139 -0.6717252 0.019962639
0.73172659 -0.68159502 -0.0021039002
0.72442227 -0.68934092 -0.0046332205
0.72153608 -0.69225498 -0.012989637
0.71090275 -0.7030183 -0.019558676
0.69920169 -0.71459534 -0.021691005
0.68506248 -0.72819515 -0.020523682
0.66863406 -0.74297536 -0.030267322
0.65883591 -0.75171537 -0.029313108
0.65492665 -0.75542448 -0.02012303
0.64881362 -0.76077315 -0.016282006
0.64400715 -0.7648347 -0.016812886
0.64258178 -0.76614917 -0.010202804
0.63128476 -0.77547566 -0.0108187
0.60608262 -0.7953769 -0.0062808677
0.58830383 -0.80849954 0.01506964
0.56338167 -0.82449084 0.053065502
0.87943455 -0.47592947 -0.0092740431
0.86782929 -0.49661573 -0.015656849
0.85374675 -0.52028019 -0.020615567
0.83543425 -0.54932188 -0.017177786
0.81634678 -0.57729256 -0.017641971
0.79910013 -0.60107314 -0.012250225
0.7851464 -0.61916013 -0.013632728
0.77603091 -0.63065189 -0.0073640492
0.77160823 -0.63609602 -0.0016138965
0.76785547 -0.64060902 -0.0042495388
0.76052711 -0.64927262 -0.0066020545
0.74599675 -0.66584454 -0.011827956
0.734476 -0.67820153 -0.024242303
0.72209873 -0.69042384 -0.043455052
0.71469613 -0.69807841 -0.04354274
0.70850655 -0.70399257 -0.049121608
0.70427846 -0.70798571 -0.052422188
0.69439988 -0.71763247 -0.053032584
0.68290122 -0.72846467 -0.054636582
0.66939378 -0.74089489 -0.054650916
0.66110935 -0.74828898 -0.054754289
0.65217609 -0.75626562 -0.052236556
0.6442477 -0.76319697 -0.049752183
0.63832812 -0.76862529 -0.041861393
0.63782555 -0.76960387 -0.029807074
0.63515471 -0.77205482 -0.022579874
0.61953409 -0.78449837 -0.027199614
0.59947591 -0.80019314 -0.017876788
0.58110573 -0.8138258 0.0019251572
0.55281626 -0.83213333 0.04413964
0.87476387 -0.47969968 -0.068384171
0.86286238 -0.49955929 -0.076870204
0.8489505 -0.52260333 -0.078541747
0.83278765 -0.54792189 -0.079033678
0.81579098 -0.57464438 -0.06533688
0.79874807 -0.59943532 -0.051757261
0.78482797 -0.6186081 -0.03700097
0.77253861 -0.63429488 -0.029225086
0.76525768 -0.64306724 -0.029072488
0.76147147 -0.64740103 -0.032141966
0.75249077 -0.65765267 -0.035363994
0.73426781 -0.67751026 -0.042785827
0.72120846 -0.69080758 -0.051412576
0.7106947 -0.70124298 -0.056314558
0.70283578 -0.70776631 -0.071335232
0.69759722 -0.7124341 -0.07613001
0.6920015 -0.71747759 -0.079748604
0.68649895 -0.72314331 -0.076045695
0.67444654 -0.73440557 -0.075962604
0.66395498 -0.74421454 -0.072859487
0.65251854 -0.75412418 -0.074271608
0.64405487 -0.76150413 -0.072834004
0.63950817 -0.76559494 -0.069954891
0.63320825 -0.77151454 -0.061746484
0.63310743 -0.77247557 -0.049562821
0.62335975 -0.78086272 -0.040939311
0.60755704 -0.79335007 -0.038341973
0.5910905 -0.80605802 -0.029706772
0.57615048 -0.81727365 -0.010695544
0.55156954 -0.83330875 0.036980774
0.86886238 -0.4795411 -0.12295727
0.85622481 -0.50074813 -0.12700544
0.84579298 -0.51856919 -0.12538034
0.82957531 -0.54360888 -0.12764871
0.81643766 -0.56494209 -0.119457
0.80229781 -0.58939422 -0.094512817
0.78678256 -0.61276941 -0.074073318
0.77072059 -0.63422658 -0.061208037
0.76113298 -0.64578788 -0.060287602
0.75635958 -0.65172972 -0.056289873
0.74231529 -0.66680814 -0.065840007
0.72568005 -0.68449864 -0.069642435
0.70958972 -0.70108373 -0.070455901
0.69893972 -0.71084329 -0.07864533
0.69300256 -0.71586995 -0.085309294
0.68830372 -0.71943289 -0.093028494
0.68396831 -0.7234985 -0.093473359
0.67957567 -0.72788719 -0.091417408
0.66750421 -0.73875045 -0.09319817
0.65881885 -0.7472215 -0.087279778
0.64879056 -0.75612817 -0.085679627
0.63821286 -0.76502472 -0.08614829
0.63283532 -0.76989738 -0.082325453
0.62909421 -0.77339273 -0.078129136
0.62501837 -0.77700344 -0.074951281
0.61105588 -0.7887542 -0.066914208
0.59798161 -0.79955046 -0.056009381
0.58258075 -0.81189987 -0.037660011
0.57281688 -0.81954209 -0.015217504
0.5473994 -0.83659529 0.021499439
0.86417557 -0.47918063 -0.15357897
0.85184977 -0.49922419 -0.15851552
0.83862845 -0.51947417 -0.16385635
0.82714511 -0.53980471 -0.15633886
0.81689144 -0.5583011 -0.14487325
0.80358981 -0.58027465 -0.1323811
0.78540301 -0.60758655 -0.11824002
0.76850977 -0.63100343 -0.1059595
0.75780436 -0.64506299 -0.098113659
0.74666447 -0.65907415 -0.09007456
0.73167557 -0.67475403 -0.09673606
0.71986384 -0.68765193 -0.09450335
0.70221205 -0.70542268 -0.09631762
0.69186414 -0.71559483 -0.096166761
0.68590786 -0.72081844 -0.099755604
0.68264713 -0.72372607 -0.10106172
0.67943722 -0.72631692 -0.10406156
0.67466332 -0.73095943 -0.10260464
0.66441853 -0.74024421 -0.10289087
0.65484849 -0.74872948 -0.10284758
0.64533056 -0.75733305 -0.099975571
0.6346815 -0.76692902 -0.094864488
0.62567439 -0.7748012 -0.090634764
0.622359 -0.77786433 -0.08715712
0.616683 -0.78238592 -0.087030756
0.60349432 -0.79214075 -0.091146297
0.58614816 -0.80673491 -0.074894088
0.57874194 -0.81392073 -0.05089993
0.5699182 -0.82129914 -0.025709442
0.54180463 -0.84046157 0.008491047
0.85849385 -0.47533141 -0.19247948
0.84664476 -0.49492585 -0.19555318
0.83562435 -0.51503416 -0.1909758
0.82443209 -0.53533297 -0.18365823
0.81744921 -0.54922967 -0.17356139
0.80192724 -0.57418853 -0.16498554
0.783873 -0.60252119 -0.15003779
0.76720476 -0.62669349 -0.13657281
0.75430983 -0.6439557 -0.12781913
0.73887986 -0.66257725 -0.12267006
0.72318865 -0.67914129 -0.12555989
0.71288372 -0.6910858 -0.11915211
0.69930839 -0.70531136 -0.11620525
0.68585688 -0.71874272 -0.11405808
0.67854815 -0.7255197 -0.11486326
0.67817784 -0.72653671 -0.11054058
0.67809511 -0.72669571 -0.11000171
0.671509 -0.73249436 -0.11192712
0.66266273 -0.7407816 -0.1100942
0.65285305 -0.74965033 -0.10866129
0.64257386 -0.75893159 -0.10545932
0.63445781 -0.76624731 -0.10162849
0.62325081 -0.77587485 -0.097860352
0.61651177 -0.78126538 -0.097660867
0.60832495 -0.787003 -0.10279607
0.59159216 -0.79903251 -0.10754426
0.57946018 -0.80913669 -0.097589539
0.57703191 -0.81397531 -0.066920607
0.5647342 -0.82438991 -0.038164929
0.54374202 -0.83918838 -0.010367228
0.85133101 -0.47191481 -0.22919844
0.84061231 -0.4912615 -0.2281076
0.83360112 -0.5054197 -0.22284545
0.82473663 -0.52470189 -0.2109441
0.81478772 -0.54211006 -0.20551801
0.79877854 -0.56932611 -0.19447524
0.78342754 -0.59311255 -0.18563079
0.76583914 -0.62043029 -0.16898719
0.75302671 -0.63834697 -0.15957419
0.72834185 -0.66709743 -0.15652209
0.71423487 -0.68194305 -0.1575507
0.70389429 -0.69518989 -0.14575265
0.69008684 -0.70973221 -0.14163452
0.68320859 -0.71769977 -0.13465904
0.67848433 -0.72392561 -0.1248628
0.67619499 -0.72696528 -0.11950656
0.67415366 -0.7289201 -0.11913152
0.66675186 -0.73551553 -0.12024503
0.65751539 -0.74403526 -0.11868047
0.64921464 -0.75180838 -0.1153452
0.6405505 -0.75985213 -0.11099454
0.63036145 -0.7686815 -0.10850435
0.62138978 -0.77675035 -0.10263348
0.61238522 -0.78355949 -0.10497081
0.59622065 -0.79468282 -0.11401819
0.58139825 -0.80450573 -0.12143561
0.57517285 -0.80970586 -0.11641572
0.57421472 -0.8142359 -0.085424545
0.55971858 -0.82712661 -0.050760983
0.54161816 -0.84029319 -0.023603458
0.84490229 -0.46655714 -0.26165735
0.83406249 -0.48289831 -0.26673766
0.83010897 -0.49478537 -0.2571119
0.82131278 -0.51627865 -0.24269668
0.80799413 -0.53875193 -0.23852009
0.79205848 -0.56293 -0.23612111
0.77786911 -0.58539095 -0.22855435
0.76244383 -0.61291544 -0.20739832
0.74887324 -0.63393356 -0.19317637
0.72087832 -0.66613874 -0.19129462
0.70541947 -0.68319539 -0.18875228
0.69484285 -0.69778276 -0.1740478
0.6858799 -0.70866126 -0.16543275
0.679576 -0.71740042 -0.15333979
0.67515147 -0.72386634 -0.14208453
0.67350264 -0.72685678 -0.13443742
0.67001146 -0.73059044 -0.13161406
0.6623496 -0.73764086 -0.13106858
0.65245652 -0.74653591 -0.13032505
0.64561571 -0.75328829 -0.12544764
0.63717529 -0.76168023 -0.11768978
0.62582922 -0.77160629 -0.11384866
0.61329087 -0.78238018 -0.10842305
0.59983707 -0.7920352 -0.11347132
0.58639081 -0.80039957 -0.12452445
0.5738402 -0.80857101 -0.13007821
0.57283198 -0.80974437 -0.12719107
0.56960299 -0.81460697 -0.10939796
0.55741128 -0.82729566 -0.069817954
0.53668513 -0.84308432 -0.034320458
0.84176246 -0.45368817 -0.29257989
0.83100972 -0.47487768 -0.2896792
0.82647081 -0.48808917 -0.28056187
0.81857084 -0.50549125 -0.27280097
0.80252626 -0.53534335 -0.26336116
0.78864499 -0.55892294 -0.2562113
0.77355323 -0.58258839 -0.24941163
0.76077748 -0.60481495 -0.23540708
0.74151728 -0.62958134 -0.231904
0.71379387 -0.66495663 -0.21984309
0.69818785 -0.68371651 -0.21228626
0.68736794 -0.69682456 -0.20484347
0.68241636 -0.70568317 -0.19057592
0.67838027 -0.71422731 -0.17227754
0.67320423 -0.72159876 -0.16152801
0.66996533 -0.72655376 -0.15253225
0.66559404 -0.7316114 -0.14740873
0.65504992 -0.74100865 -0.14770167
0.64622807 -0.74947057 -0.1438164
0.63960478 -0.75573694 -0.14059662
0.6319561 -0.76312676 -0.13516303
0.62388692 -0.77191004 -0.12214746
0.60772703 -0.78577844 -0.11497867
0.59167125 -0.79699506 -0.12134248
0.57858247 -0.8044901 -0.13430562
0.56999896 -0.80967526 -0.13973961
0.57185554 -0.80874372 -0.13753121
0.56464222 -0.81582738 -0.12491938
0.55349959 -0.828031 -0.089458749
0.53398814 -0.8437492 -0.054258223
0.83611034 -0.4518159 -0.3110979
0.82636217 -0.47099467 -0.30869012
0.82300528 -0.48163204 -0.3011526
0.81288199 -0.50178826 -0.29568803
0.79950869 -0.52639704 -0.28929572
0.78462277 -0.55499635 -0.2763081
0.77162289 -0.5778536 -0.26586337
0.75858808 -0.59957849 -0.25504856
0.73834223 -0.62688237 -0.24873528
0.71357883 -0.65836626 -0.23949762
0.69233783 -0.68396866 -0.22990261
0.6842202 -0.69416587 -0.22355416
0.68267702 -0.69803808 -0.21609006
0.67556935 -0.70998724 -0.19880685
0.66950564 -0.71988653 -0.18309993
0.66347302 -0.72759119 -0.17439787
0.65849531 -0.73338655 -0.16890262
0.65024957 -0.74219732 -0.1622302
0.63984171 -0.75059691 -0.16494503
0.63063264 -0.75810493 -0.16607043
0.62365664 -0.76602988 -0.1557261
0.61307459 -0.77705202 -0.14258224
0.59883899 -0.79045029 -0.12876411
0.58234694 -0.80203208 -0.13272748
0.57091318 -0.80865408 -0.14190389
0.56500495 -0.8119194 -0.14682063
0.5663007 -0.81122659 -0.14565352
0.55747278 -0.81889641 -0.13650193
0.54759259 -0.82914353 -0.11253159
0.53292983 -0.8435676 -0.066177715
0.83345282 -0.4441715 -0.32873709
0.82366826 -0.46784455 -0.32045604
0.81736386 -0.47784396 -0.32184075
0.80747294 -0.49743455 -0.31709039
0.79453139 -0.52224772 -0.30980185
0.78141488 -0.54806442 -0.29835579
0.76814089 -0.57290016 -0.28591081
0.75617788 -0.59529037 -0.27170644
0.73560165 -0.62279528 -0.26648876
0.70927872 -0.65755755 -0.25405071
0.68875895 -0.68157839 -0.2471073
0.68347497 -0.68981895 -0.23877141
0.68001534 -0.69510799 -0.23324671
0.67278108 -0.70616819 -0.22066288
0.66577024 -0.71723843 -0.20571588
0.65720263 -0.72784002 -0.19578971
0.64955223 -0.73599236 -0.19078036
0.63941706 -0.74537937 -0.18856148
0.62907763 -0.75319282 -0.19225483
0.62375251 -0.75874744 -0.18771023
0.61168426 -0.77018773 -0.18070205
0.60332641 -0.78070125 -0.16279681
0.58290303 -0.79729459 -0.15666969
0.56844916 -0.80796712 -0.15509574
0.56241804 -0.81263256 -0.1526901
0.56514506 -0.81172975 -0.14732913
0.55914991 -0.81496986 -0.15223503
0.55266355 -0.82009224 -0.14836345
0.5430458 -0.83011385 -0.12653954
0.52983063 -0.843652 -0.08678022
0.83046296 -0.44072384 -0.34072537
0.82135739 -0.46266507 -0.33363614
0.81337473 -0.47534386 -0.33536512
0.80204038 -0.4950567 -0.33414083
0.79055053 -0.51804837 -0.32658192
0.78004483 -0.54025872 -0.31567481
0.76452834 -0.56882038 -0.30321576
0.75035287 -0.59309757 -0.2919004
0.73003585 -0.62206484 -0.28298939
0.70491549 -0.65418086 -0.2741196
0.68791869 -0.67560878 -0.2651804
0.68167734 -0.68453361 -0.25832101
0.67795557 -0.68956915 -0.25469714
0.66715974 -0.70313237 -0.24597306
0.65883376 -0.71494842 -0.23406587
0.64579945 -0.72986365 -0.22414756
0.63604459 -0.74059643 -0.21671227
0.6286974 -0.7485342 -0.21079876
0.61704621 -0.75631094 -0.21736546
0.60754049 -0.76191849 -0.22444324
0.59953384 -0.77210761 -0.21073449
0.58221212 -0.78915375 -0.19561546
0.56784327 -0.80113053 -0.18906056
0.55678973 -0.81109317 -0.17920119
0.55401765 -0.8141338 -0.17392699
0.55638199 -0.81503121 -0.16175046
0.55742329 -0.81622038 -0.15186696
0.54810107 -0.82154695 -0.15698987
0.53722996 -0.83077685 -0.14558089
0.52513158 -0.84392651 -0.10965796
0.82717764 -0.43819608 -0.35179731
0.81810177 -0.4619943 -0.34244818
0.8086185 -0.47768709 -0.34344019
0.79927325 -0.49165243 -0.34560116
0.78993982 -0.51282281 -0.3361664
0.77802651 -0.53948773 -0.32191261
0.76158654 -0.56470901 -0.31794603
0.7450732 -0.59114612 -0.30888864
0.72811174 -0.61451238 -0.30369036
0.70435803 -0.64711788 -0.29175027
0.68830132 -0.66948445 -0.27934186
0.68190727 -0.68013432 -0.26910924
0.67348064 -0.6887129 -0.2685114
0.66368056 -0.69894953 -0.26645388
0.64992512 -0.71549839 -0.25624091
0.63562865 -0.73082583 -0.24873647
0.6205847 -0.74475846 -0.24537617
0.60700308 -0.75586198 -0.24539749
0.60396549 -0.7613162 -0.23584602
0.59236878 -0.76739828 -0.24535504
0.58479787 -0.77570776 -0.23725287
0.56493565 -0.79286053 -0.2285167
0.54813352 -0.80926564 -0.21127888
0.54609852 -0.81209269 -0.20562554
0.54849961 -0.81171365 -0.20067172
0.55373348 -0.81329215 -0.17870398
0.54914309 -0.8190345 -0.16620575
0.54278419 -0.82370134 -0.16401656
0.53395571 -0.83035659 -0.15937136
0.52232509 -0.84253878 -0.13154811
0.82446608 -0.43681711 -0.35978674
0.81314413 -0.46130143 -0.35496141
0.80362012 -0.47726307 -0.3555484
0.79643745 -0.49215878 -0.3513789
0.7857348 -0.51438215 -0.34355761