# vtk DataFile Version 2.0
Grain example
ASCII
DATASET UNSTRUCTURED_GRID
POINTS 900 float
14.254905 8.0215268 8.8389422
13.613043 8.0445772 9.2917575
12.983115 8.1007618 9.7204745
12.344367 8.1572747 10.151309
11.722677 8.2192867 10.553125
11.202748 8.2780038 10.79172
10.6868 8.3323932 11.028337
10.205157 8.3589138 11.274756
9.7905726 8.3510011 11.498025
9.3601287 8.3340092 11.728398
8.9427932 8.3260938 11.931162
8.521493 8.3221307 12.135619
8.090368 8.3135435 12.342912
7.6619087 8.2991299 12.53684
7.1472334 8.2902111 12.715211
6.5878454 8.2980637 12.861859
5.9579762 8.3234878 12.988119
5.3153446 8.361225 13.099951
4.5988793 8.4183682 13.181885
3.8050989 8.5295194 13.190993
3.0147155 8.6549001 13.173141
2.2317121 8.7809481 13.148558
1.4377658 8.9110065 13.093979
0.65177442 9.038181 13.039901
-0.1117819 9.1625042 12.991318
-0.80486781 9.2569989 12.96343
-1.4764302 9.3238666 12.931369
-2.1786815 9.3354066 12.894936
-2.8752169 9.3340055 12.860247
-3.6031982 9.3 12.799363
14.259327 8.550594 8.6819252
13.575608 8.6004283 9.1215093
12.927975 8.6587689 9.5555972
12.281394 8.7209389 9.9881134
11.721653 8.7812229 10.282717
11.205612 8.8378606 10.521038
10.690777 8.8945814 10.754949
10.241993 8.9159543 10.984217
9.8257832 8.9140344 11.201776
9.4165997 8.917859 11.396847
8.9998641 8.920598 11.588487
8.5811999 8.9115574 11.780146
8.1568295 8.8901946 11.97011
7.7270262 8.8750302 12.153217
7.2346998 8.8687836 12.311983
6.6589986 8.8705304 12.438535
6.0312258 8.8787246 12.561985
5.3737633 8.9077809 12.662026
4.586758 9.0010401 12.688977
3.7790821 9.1163729 12.686769
2.9409693 9.2295357 12.652882
2.1566351 9.3568298 12.599466
1.3595754 9.4875475 12.544328
0.57726819 9.6186034 12.484734
-0.20954815 9.7416475 12.436962
-0.89873311 9.8336875 12.408517
-1.5821475 9.873955 12.381178
-2.2863758 9.8748402 12.345617
-2.9920321 9.8519576 12.300985
-3.7176141 9.8184938 12.231564
14.227085 9.1270901 8.5049581
13.539899 9.172928 8.9549351
12.872459 9.2257664 9.3975352
12.256743 9.2896946 9.7784334
11.733087 9.3467443 10.014461
11.209494 9.4022957 10.249352
10.697369 9.456105 10.486833
10.260042 9.4720715 10.701186
9.8712831 9.4916783 10.876337
9.4726206 9.5085332 11.055742
9.0491859 9.5148474 11.228288
8.633019 9.5000624 11.391918
8.2036616 9.4742217 11.566931
7.7543149 9.4643735 11.718101
7.2850182 9.4523947 11.88034
6.7248209 9.4467129 12.006476
6.0586386 9.4697312 12.08908
5.3592784 9.5186997 12.141228
4.5636918 9.6151222 12.148119
3.7450683 9.7220663 12.116116
2.9089716 9.8166393 12.088123
2.102041 9.9265963 12.0429
1.3145793 10.041201 11.998168
0.53653577 10.158817 11.949212
-0.24047343 10.274415 11.899054
-0.943165 10.359042 11.870027
-1.6494871 10.3896 11.83711
-2.3746329 10.378614 11.794981
-3.0892326 10.355018 11.73695
-3.8022421 10.301293 11.685531
14.17352 9.6842677 8.3644287
13.497472 9.7534157 8.7873356
12.818793 9.8064168 9.2408754
12.275372 9.8608793 9.5023512
11.742863 9.9190073 9.7410641
11.216467 9.9797178 9.97409
10.699515 10.029154 10.211426
10.296642 10.051918 10.379283
9.894871 10.073347 10.526929
9.495778 10.092614 10.678712
9.0898653 10.097228 10.831507
8.6683126 10.087518 10.98743
8.2191766 10.072613 11.134765
7.762596 10.054093 11.276756
7.3004783 10.031715 11.413865
6.7625625 10.030321 11.52162
6.0915638 10.057291 11.586065
5.344905 10.131598 11.58288
4.5601096 10.20956 11.569434
3.7695005 10.291452 11.547251
2.9277217 10.380957 11.523171
2.1029307 10.475276 11.489081
1.2948146 10.581903 11.450657
0.5157845 10.700413 11.402054
-0.25599744 10.802238 11.36261
-1.0088284 10.880015 11.33065
-1.7315379 10.893709 11.279082
-2.4582947 10.88834 11.23096
-3.1600707 10.838489 11.186388
-3.8521581 10.746482 11.141913
14.120605 10.233789 8.2475473
13.438919 10.314005 8.6672897
12.823362 10.387336 8.9919378
12.295977 10.442719 9.2253989
11.758658 10.4961 9.4636843
11.218461 10.552475 9.6837365
10.716414 10.618063 9.8604263
10.321379 10.63113 10.008813
9.9301509 10.643991 10.158347
9.5420858 10.643077 10.303215
9.1374872 10.641301 10.431965
8.7169381 10.632599 10.569452
8.2647749 10.624293 10.701287
7.7819536 10.618538 10.809907
7.2924088 10.608328 10.917667
6.7894322 10.597493 11.005668
6.0975454 10.662628 11.0093
5.3441403 10.73304 11.005683
4.5554777 10.80639 10.992238
3.7581028 10.877448 10.978923
2.9521368 10.957579 10.950109
2.1272844 11.046535 10.921634
1.2879812 11.133618 10.896533
0.49696012 11.241343 10.855045
-0.29785504 11.336456 10.812292
-1.0938606 11.414628 10.756044
-1.8168572 11.410176 10.709921
-2.5021703 11.362874 10.682744
-3.1889495 11.267665 10.647398
-3.8884782 11.17195 10.597507
14.064411 10.774819 8.1376512
13.407644 10.854129 8.5261252
12.856581 10.922901 8.7324661
12.328159 10.991266 8.9315916
11.794232 11.046479 9.1431167
11.269512 11.113222 9.3275895
10.783367 11.161876 9.4966554
10.387243 11.172051 9.6473231
9.9861844 11.176436 9.7820477
9.5801633 11.175782 9.901398
9.1779135 11.175766 10.022533
8.7419962 11.1884 10.122331
8.257114 11.195082 10.2154
7.7654794 11.194077 10.290436
7.2683443 11.179796 10.377778
6.7160355 11.22251 10.41198
6.1064769 11.271784 10.431608
5.3455991 11.339237 10.423141
4.5587523 11.408323 10.411914
3.760485 11.478027 10.397249
2.9435253 11.545653 10.379452
2.1433961 11.615616 10.354567
1.3131833 11.708445 10.322354
0.46761602 11.798873 10.287909
-0.36764271 11.86987 10.241991
-1.1583146 11.919202 10.194635
-1.847279 11.86836 10.163471
-2.5327545 11.799915 10.139466
-3.2152872 11.69401 10.097315
-3.8985679 11.555936 10.069175
14.046739 11.273996 8.0135317
13.450847 11.361645 8.2435214
12.900865 11.433498 8.4477226
12.366312 11.510267 8.6439024
11.852109 11.600654 8.8037938
11.3255 11.675718 8.9695984
10.855921 11.716596 9.1187814
10.442548 11.714025 9.2487974
10.033213 11.705723 9.3757717
9.6180201 11.709834 9.4858754
9.1753801 11.726594 9.5669938
8.7103983 11.753711 9.6142199
8.2333073 11.772889 9.6707168
7.7446793 11.774364 9.7438103
7.1959164 11.810608 9.7840108
6.6348918 11.851123 9.8184141
6.0728317 11.887435 9.8541042
5.3441359 11.947181 9.8409473
4.5708736 12.015586 9.8289655
3.7635661 12.085734 9.8115406
2.9366509 12.153011 9.7900592
2.1316167 12.220475 9.7664503
1.3119437 12.292291 9.7362915
0.44860579 12.357447 9.6908968
-0.4148382 12.391557 9.6654914
-1.1650582 12.381184 9.6396828
-1.8718435 12.310232 9.6162095
-2.551875 12.210324 9.5991073
-3.2176063 12.073838 9.5684369
-3.8932106 11.933852 9.5414542
14.07313 11.756871 7.8088124
13.493339 11.850516 7.9829461
12.944081 11.940639 8.1648353
12.416133 12.039842 8.3194873
11.899233 12.143377 8.4666078
11.361026 12.229944 8.605532
10.905726 12.255841 8.7235953
10.485317 12.260954 8.8229042
10.058205 12.259171 8.9121397
9.6121351 12.267112 8.9852706
9.1362202 12.287121 9.0379239
8.6712391 12.314227 9.085141
8.1884683 12.354048 9.1214086
7.6654898 12.401656 9.1498946
7.1150966 12.443986 9.1844575
6.5510627 12.482087 9.2208524
5.9911658 12.518336 9.2523468
5.315712 12.570284 9.2563215
4.5593336 12.633493 9.2363408
3.7668833 12.700906 9.21701
2.9381846 12.764837 9.197222
2.1212187 12.827519 9.1707161
1.2642378 12.880858 9.133044
0.43076271 12.896003 9.1081612
-0.37734201 12.873785 9.0973495
-1.1561973 12.83335 9.0825025
-1.8729545 12.736256 9.0647528
-2.5486731 12.60293 9.0575455
-3.2188271 12.456371 9.0371356
-3.8928202 12.310766 9.0161457
14.130758 12.247165 7.5545274
13.549421 12.334318 7.7304504
13.000809 12.451156 7.864742
12.45774 12.559175 8.0039018
11.915267 12.673996 8.1142917
11.367072 12.773019 8.2056258
10.928386 12.79659 8.2762485
10.492902 12.805473 8.3415144
10.043792 12.820293 8.3993562
9.5751188 12.844867 8.4433497
9.0844518 12.879354 8.4825662
8.5770909 12.929309 8.5084445
8.074169 12.978443 8.5327675
7.5703631 13.032261 8.555514
7.0305401 13.075886 8.5824791
6.4623509 13.118582 8.6063292
5.8997374 13.15793 8.6343953
5.279216 13.200811 8.6599925
4.5266759 13.263064 8.6405906
3.7625078 13.318363 8.6216055
2.9454313 13.377445 8.5971703
2.100794 13.424548 8.5638053
1.2499104 13.434731 8.5388972
0.43970366 13.404854 8.5312282
-0.35640732 13.359751 8.5313036
-1.1222886 13.264426 8.5274049
-1.849003 13.140816 8.5150958
-2.5397442 13.003445 8.4996099
-3.2147576 12.853262 8.479623
-3.8841881 12.693323 8.4637951
14.19623 12.738753 7.3027119
13.628727 12.842639 7.4376315
13.063479 12.957764 7.5710038
12.482393 13.080434 7.6754302
11.913536 13.200286 7.7329795
11.366323 13.303532 7.7618998
10.929089 13.352972 7.7967712
10.486506 13.374947 7.8501551
9.9812916 13.429559 7.863252
9.4694883 13.489021 7.872946
8.961551 13.546873 7.8827217
8.4596874 13.599649 7.9053319
7.9558628 13.641398 7.928528
7.4483174 13.68129 7.9490157
6.9295656 13.729189 7.9620632
6.3805172 13.772622 7.9808247
5.8206396 13.8127 8.0030589
5.2196883 13.854257 8.0245686
4.5082431 13.903405 8.0189217
3.7467738 13.945266 7.9904825
2.9408283 13.976601 7.9484331
2.1320227 13.9672 7.9326141
1.2817438 13.954369 7.9145832
0.48131855 13.89657 7.9229308
-0.32586277 13.82262 7.9311533
-1.079612 13.688595 7.935751
-1.806273 13.542636 7.9404254
-2.5267544 13.393722 7.9204893
-3.1941141 13.24219 7.902086
-3.8646897 13.08067 7.8895325
14.285922 13.281791 7.0231583
13.712159 13.386279 7.1508923
13.107306 13.499697 7.245521
12.484337 13.616933 7.3020419
11.896523 13.73531 7.3213867
11.346494 13.850617 7.321984
10.861962 13.939859 7.3102504
10.371909 14.030128 7.2888591
9.86814 14.089675 7.2842612
9.3583097 14.145424 7.2844284
8.8484764 14.206478 7.2801364
8.3422911 14.258627 7.2799971
7.83579 14.305824 7.285703
7.3288487 14.345759 7.3039848
6.8212881 14.386026 7.3247567
6.29248 14.422289 7.344924
5.7443707 14.46284 7.3642265
5.1618705 14.503722 7.3866551
4.4907805 14.540114 7.3972248
3.7278252 14.5684 7.365125
2.9525545 14.543616 7.3464825
2.1510316 14.506521 7.3215482
1.3391584 14.446051 7.309236
0.54091177 14.358538 7.3222708
-0.26661979 14.267938 7.3370723
-1.0309636 14.118716 7.3409659
-1.7646789 13.963723 7.3509106
-2.512706 13.787641 7.3396545
-3.1745852 13.628788 7.3272561
-3.8354698 13.454037 7.3322566
14.370268 13.81507 6.757457
[...]
POINT_DATA 900
VECTORS normals float
0.57641468 0.202533 0.79166059
0.55963097 0.2313702 0.79578955
0.53463822 0.26330007 0.80301622
0.50754615 0.29485515 0.8096032
0.48203253 0.32949225 0.81183711
0.46334782 0.35219666 0.81318283
0.44113927 0.37459088 0.81552303
0.42052692 0.39244489 0.8180123
0.40543958 0.41302863 0.81549133
0.39152778 0.4332961 0.81176381
0.36873346 0.45009098 0.81329807
0.34085958 0.47828107 0.80935898
0.32769024 0.48975239 0.80793669
0.29591462 0.51462526 0.80473311
0.26735434 0.53725797 0.7999222
0.22200762 0.57112828 0.790269
0.1882679 0.60150218 0.77636997
0.15628479 0.62212406 0.76716147
0.1271865 0.64110005 0.75684498
0.10399154 0.65923495 0.74471138
0.087504722 0.67329797 0.73417489
0.076393718 0.68400095 0.72546998
0.069497983 0.68787629 0.72249307
0.056760188 0.69476118 0.71699734
0.043449425 0.69573951 0.71697886
0.022918824 0.69796206 0.71576791
-0.0019642167 0.69785417 0.71623718
-0.025726644 0.69886515 0.71479062
-0.05278574 0.70081067 0.71139164
-0.080080671 0.70277949 0.70688619
0.55830204 0.22330579 0.79902025
0.536552 0.25557638 0.80423421
0.51787724 0.28580339 0.80629994
0.48919992 0.31858456 0.81190352
0.47069652 0.34018896 0.81407386
0.44521292 0.36484105 0.8177264
0.4199043 0.39209531 0.81849963
0.40543024 0.4124039 0.81581208
0.38691194 0.43440844 0.81338088
0.36704283 0.44682602 0.8158591
0.35006718 0.47067968 0.80988494
0.32493395 0.4890976 0.80944516
0.30539973 0.51200489 0.80285864
0.28066539 0.52941943 0.80058854
0.24771043 0.55446364 0.79448701
0.20191165 0.58670067 0.78422829
0.17149015 0.60817231 0.77505972
0.13547603 0.6328878 0.76229868
0.10868674 0.6573542 0.74570279
0.086905712 0.6714812 0.73590787
0.075157048 0.68534928 0.72432574
0.069190061 0.69282873 0.7177751
0.064817022 0.69679852 0.71433226
0.055527373 0.70338212 0.70863976
0.040446482 0.70511019 0.70794329
0.015934278 0.7067228 0.70731109
-0.011592125 0.70806689 0.70605021
-0.033312523 0.71279505 0.70058083
-0.058577435 0.71588865 0.69575292
-0.089162918 0.72228301 0.68582595
0.54218071 0.23511604 0.8066973
0.52092289 0.26902563 0.81010157
0.49681593 0.30368 0.81298979
0.47373346 0.33377988 0.81496479
0.45118237 0.35913787 0.81697886
0.41982386 0.3831952 0.82274502
0.39984814 0.41245997 0.8185342
0.37941827 0.43459491 0.81680416
0.35816063 0.45590269 0.81478445
0.32673766 0.48355215 0.81204668
0.31840853 0.49747885 0.80692676
0.28797116 0.52061168 0.8037637
0.27612236 0.53247282 0.8001432
0.25220387 0.55265514 0.79433337
0.22938325 0.56839946 0.79012997
0.18191926 0.60159577 0.77780969
0.14540086 0.62964704 0.76315346
0.10866881 0.65295306 0.74956214
0.087060076 0.66987333 0.73735355
0.07333035 0.6825861 0.72711682
0.065924054 0.69338809 0.71754231
0.060595219 0.69859508 0.7129468
0.058611199 0.70272076 0.70904744
0.053771183 0.7078155 0.70434784
0.034516251 0.71638936 0.6968464
0.0097666725 0.72126812 0.69258712
-0.016663087 0.72454255 0.68902861
-0.048837885 0.73113576 0.68048172
-0.072814108 0.73786701 0.671007
-0.10666843 0.74340411 0.66028189
0.51979749 0.25415364 0.81560805
0.49742056 0.28197096 0.82040549
0.46776918 0.31740754 0.82489057
0.45025395 0.35006833 0.82141557
0.41893997 0.37912543 0.8250777
0.39385271 0.41107794 0.82212831
0.36689753 0.43819253 0.82059339
0.34300849 0.46928077 0.81370802
0.32592084 0.48597511 0.81092774
0.30333061 0.51062533 0.80451993
0.28803016 0.5212513 0.8033279
0.24986989 0.54803275 0.79826383
0.23482238 0.5613782 0.79354456
0.20804255 0.58347497 0.78503201
0.18624866 0.60416025 0.77479148
0.1521512 0.62540022 0.76532645
0.11774522 0.65301095 0.74813953
0.089055549 0.66940814 0.7375377
0.073034832 0.68300131 0.72675658
0.064093577 0.69140974 0.71961419
0.058365211 0.69826724 0.71345383
0.054434408 0.70397124 0.70813939
0.050977036 0.7080813 0.70428844
0.043132781 0.71489194 0.69790335
0.028015586 0.72586577 0.6872656
-0.0044625711 0.73407345 0.67905541
-0.035743434 0.74136648 0.67014785
-0.072181499 0.7499727 0.65751866
-0.098532357 0.75932896 0.64320362
-0.12543224 0.76417774 0.63269197
0.49668606 0.2742631 0.82345778
0.46803568 0.30413696 0.82972484
0.4463971 0.343605 0.82623558
0.41992021 0.37241866 0.82762997
0.39231229 0.40218543 0.82724721
0.35799019 0.44053106 0.82327116
0.32659508 0.47443471 0.81746398
0.30737239 0.49943844 0.80998979
0.28822621 0.51881201 0.80483523
0.27142418 0.54148077 0.79569309
0.25431526 0.55495845 0.79205105
0.22547906 0.57669859 0.78522476
0.2040665 0.59406078 0.77810581
0.1718638 0.62016909 0.76541044
0.14759986 0.635577 0.75779691
0.12353686 0.65212466 0.74797866
0.097565051 0.66938888 0.73647782
0.074217536 0.68253091 0.72707862
0.061523394 0.69226993 0.71901128
0.054413356 0.69621425 0.71576875
0.051290247 0.70083735 0.71147475
0.04755486 0.70648662 0.7061269
0.041275846 0.71400611 0.69892172
0.03080915 0.72276812 0.69040353
0.01071314 0.73510068 0.67787331
-0.023308888 0.74877655 0.66241254
-0.053671802 0.75923693 0.64859742
-0.08953877 0.76901824 0.63292476
-0.11503503 0.77460047 0.62190116
-0.14623739 0.78276199 0.60489528
0.47142292 0.29644335 0.83059122
0.44128045 0.33345065 0.83311598
0.42533731 0.36211195 0.82943542
0.39957136 0.39731167 0.8261272
0.35711637 0.43492204 0.82662611
0.32029938 0.47537431 0.81940684
0.29353319 0.51054713 0.80819546
0.27066332 0.53383747 0.80109857
0.25436542 0.55925535 0.78900677
0.23177235 0.57769455 0.78265611
0.2156688 0.59638456 0.7731833
0.18661864 0.61619391 0.7651657
0.16347335 0.6331907 0.75653552
0.13908327 0.6525447 0.74487667
0.11720272 0.66222271 0.74008419
0.095908929 0.67608898 0.73055127
0.084198274 0.68222111 0.72628163
0.066012064 0.68925888 0.72150163
0.054458437 0.69372096 0.71818208
0.047917451 0.69821381 0.71428383
0.043859653 0.70179847 0.71102408
0.039794321 0.7070359 0.70605711
0.029927864 0.71855824 0.69482255
0.013787322 0.73431088 0.6786733
-0.0050685937 0.7466338 0.66521596
-0.036864843 0.76139813 0.64723556
-0.068032469 0.77123099 0.63290943
-0.10658498 0.78164896 0.61454418
-0.13263981 0.79073104 0.5976212
-0.15619869 0.79672824 0.58380311
0.45233474 0.31987955 0.83250847
0.42057598 0.35854748 0.8334024
0.39216566 0.39141533 0.8324663
0.35830992 0.43781863 0.82457798
0.31325293 0.48042075 0.81918771
0.27572657 0.52093255 0.80783918
0.2442927 0.55192123 0.7973105
0.23028833 0.57130883 0.78776488
0.20859646 0.5975449 0.7742271
0.19885536 0.61104032 0.76621555
0.17782579 0.62945877 0.75641235
0.15258529 0.64820147 0.74602452
0.12921918 0.66528494 0.73532194
0.11339729 0.67446723 0.72954439
0.096011189 0.6807462 0.72620001
0.084796588 0.68511044 0.72348685
0.075957971 0.68865928 0.72109554
0.060979259 0.69224145 0.71908505
0.049018986 0.69560222 0.71675288
0.04260071 0.69920884 0.7136471
0.035478211 0.70696282 0.7063603
0.027969984 0.71597845 0.69756185
0.013887792 0.72429079 0.68935476
-0.0038812142 0.739724 0.67289921
-0.028621151 0.75906441 0.65038608
-0.054097746 0.77136398 0.63409073
-0.098082869 0.78310243 0.61410939
-0.13049934 0.79312754 0.59491061
-0.14815545 0.7994624 0.58215963
-0.17185112 0.80532616 0.56737728
0.41573092 0.35193406 0.83863593
0.38511235 0.39009456 0.83636996
0.34899743 0.42510284 0.83515769
0.31572464 0.47468627 0.82157829
0.27074429 0.52463534 0.8071278
0.22732607 0.56243768 0.79497592
0.20482625 0.58415651 0.78537086
0.18863783 0.60495116 0.77359541
0.16729454 0.62254678 0.76449202
0.15457988 0.63867418 0.75379065
0.14069518 0.65470932 0.74267124
0.12552767 0.6667921 0.73459587
0.11135717 0.67672513 0.72776554
0.099844775 0.68295908 0.72360066
0.088002324 0.68738269 0.72094426
0.077190589 0.69060261 0.71910336
0.069389679 0.69285932 0.71772629
0.057203177 0.695094 0.71663947
0.045104868 0.69797315 0.71470206
0.035311641 0.70195901 0.71134144
0.025280583 0.70842232 0.70533588
0.01246252 0.72266856 0.69108237
-0.0077376221 0.73532069 0.67767515
-0.027360918 0.74960616 0.66131837
-0.048850329 0.76838784 0.63811737
-0.0823277 0.78152674 0.61841581
-0.11542697 0.79386078 0.59704411
-0.14473745 0.80218832 0.57926244
-0.16110756 0.80705391 0.56807424
-0.18552928 0.80959272 0.55690081
0.3906298 0.37237355 0.84187071
0.34174101 0.42031543 0.84056411
0.31010294 0.45713784 0.83358333
0.27196438 0.49946829 0.82253681
0.23129613 0.55818906 0.79682311
0.19204859 0.5961422 0.77957156
0.17124329 0.61451283 0.77009721
0.15289272 0.63191317 0.7598089
0.13614916 0.64820907 0.74919184
0.12798225 0.6596845 0.74056526
0.11681498 0.67116771 0.73204383
0.1086743 0.67846375 0.72655133
0.097722404 0.6856176 0.72137289
0.088947432 0.68969802 0.71861324
0.081295105 0.69272786 0.71660255
0.072540381 0.69487015 0.71546723
0.06480892 0.69755361 0.71359566
0.054483191 0.69949791 0.71255473
0.037706304 0.70189252 0.71128413
0.023471267 0.70829193 0.70552934
0.0087631408 0.71948091 0.69445693
-0.0041521745 0.73030813 0.68310525
-0.027318072 0.74632714 0.66501844
-0.045794994 0.75709478 0.65169802
-0.080323969 0.77554669 0.62615923
-0.1083778 0.7894538 0.60416632
-0.13730711 0.80219672 0.58105696
-0.15976832 0.80902418 0.56564473
-0.17454339 0.81265243 0.55599517
-0.1971112 0.8161264 0.54321714
0.35798727 0.41411715 0.83687042
0.3174971 0.44070202 0.83962928
0.2661451 0.49718745 0.82581561
0.23972721 0.54070749 0.80632889
0.19464351 0.58787788 0.78518374
0.1585284 0.61806703 0.76997526
0.14005893 0.63779978 0.75736051
0.12488973 0.64833359 0.75104335
0.11505771 0.66255147 0.74012652
0.10516662 0.67095675 0.73400069
0.09912887 0.67899405 0.72742047
0.090655402 0.68454209 0.72331441
0.084961856 0.68968604 0.71910685
0.080309993 0.69256613 0.71686991
0.074012418 0.69586941 0.7143444
0.067915416 0.69875368 0.71213116
0.059672613 0.70223178 0.70944324
0.047895025 0.70510452 0.70748405
0.028820518 0.71063352 0.70297182
0.010251391 0.71734783 0.69663979
-0.010649976 0.72882145 0.68462097
-0.024882763 0.73926969 0.6729496
-0.04555642 0.75495718 0.65418978
-0.069926151 0.76701969 0.6378018
-0.10194455 0.78437026 0.61185832
-0.1295131 0.79274755 0.59563217
-0.15296748 0.80468965 0.57365103
-0.16922734 0.81241987 0.55797496
-0.18944325 0.81615074 0.54590221
-0.21256024 0.82143012 0.52921707
0.32466611 0.46184455 0.82540386
0.2847568 0.49654349 0.81997447
0.22899847 0.53029696 0.81629947
0.19838691 0.57696829 0.7923069
0.16018687 0.61127406 0.77503819
0.12872518 0.63411254 0.76245073
0.11006865 0.65049551 0.75149217
0.095903812 0.65981605 0.74528198
0.090120234 0.66797333 0.73870831
0.084714999 0.67489778 0.7330323
0.078738371 0.68121723 0.7278347
0.078345331 0.6866031 0.72279886
0.07377788 0.68900982 0.72098703
0.070498906 0.69378254 0.71672568
0.06452334 0.69641364 0.71473406
0.057505918 0.70127741 0.71056531
0.048074062 0.70845849 0.70411323
0.033166509 0.715039 0.69829737
0.010159658 0.72075851 0.69311179
-0.010352099 0.72815848 0.68533062
-0.030777178 0.73741164 0.67474205
-0.046189938 0.74734227 0.66283182
-0.068998672 0.76356304 0.64203635
-0.092616324 0.77700952 0.62263827
-0.12076618 0.78717708 0.60478738
-0.14895135 0.79534458 0.58757169
-0.17214348 0.80488625 0.56791263
-0.18911812 0.8146533 0.5482466
-0.2043196 0.81863819 0.53673552
-0.23233434 0.82443337 0.51607206
0.31377041 0.49058648 0.81294098
0.25022291 0.53620705 0.80614546
0.19548311 0.57132263 0.79710527
0.15200795 0.6091052 0.77838579
0.11602848 0.6362094 0.76274176
0.099942628 0.64766632 0.75534086
0.087123593 0.65716308 0.74869631
0.079981982 0.66415655 0.74330274
0.075230783 0.67061315 0.73798261
0.069847687 0.67570405 0.73385649
0.068037425 0.67958497 0.73043492
0.063145266 0.68437707 0.72638881
0.059894749 0.68798978 0.72324455
0.056939797 0.69123118 0.72038692
0.049424213 0.6986943 0.71371109
0.041224228 0.70795126 0.70505715
0.035041216 0.7148186 0.69843144
0.017359266 0.72230357 0.69135823
-0.0037134562 0.72874023 0.68478017
-0.023146585 0.73459909 0.67810649
-0.048922293 0.74340749 0.66704715
-0.065511855 0.75423088 0.65333297
-0.08530203 0.76571101 0.6375031
-0.11137538 0.77997279 0.615823
-0.13911935 0.78967216 0.59754806
-0.16686855 0.79961113 0.57686821
-0.18962844 0.80435464 0.56307608
-0.20879734 0.81632325 0.53853506
-0.22370594 0.82197663 0.52374618
-0.24439493 0.82555151 0.50866081
0.25613878 0.54585172 0.79777116
0.20789467 0.57121016 0.79403952
0.14916171 0.60721166 0.78041321
0.11565141 0.63267976 0.76572911
0.094042875 0.65035744 0.75378454
0.082788874 0.65909797 0.74748637
0.073233181 0.6655661 0.74273728
0.069494889 0.66824608 0.74068727
0.064941561 0.67312861 0.7366685
0.061253519 0.67554875 0.73476656
0.057347068 0.67817602 0.73265858
0.051659448 0.68355045 0.72807286
0.04541081 0.69008385 0.72230335
0.039345834 0.69703407 0.71595769
0.027611221 0.7078031 0.70586995
0.017582786 0.71968619 0.69407683
0.012168607 0.72897913 0.68442776
-0.0011620114 0.7348078 0.67827439
-0.021721759 0.74114946 0.67098855
-0.036969751 0.74484372 0.66621398
-0.062275808 0.75091081 0.65746078
-0.081684391 0.76130348 0.64322987
-0.10391259 0.76978703 0.62978576
-0.13333435 0.7807461 0.61045677
-0.16056006 0.7907864 0.59065839
-0.18779089 0.80136642 0.56793172
-0.21117411 0.80766236 0.55053339
-0.22249057 0.8142194 0.53623196
-0.24698093 0.82315911 0.51128221
-0.26744155 0.82567443 0.49672603
0.19292556 0.58019681 0.79129728
0.15629946 0.61284109 0.77459427
0.11964742 0.63468894 0.76344905
0.09468548 0.64985982 0.7541332
0.079264299 0.65803486 0.74880391
0.069226769 0.66287784 0.74552037
0.064690394 0.66551154 0.74357887
0.059256173 0.66746178 0.74228261
0.055461826 0.67180811 0.73864596
0.049455437 0.6748948 0.73625483
0.043118478 0.68026301 0.73169873
0.034085736 0.68876584 0.72418214
0.023130395 0.69716211 0.71654028
0.01281913 0.70515034 0.70894194
0.0036947433 0.71688615 0.69718047
-0.0016447201 0.72870919 0.6848213
-0.0083953755 0.73925321 0.67337524
-0.01860204 0.74436778 0.66751073
-0.033280784 0.75157873 0.65880331
-0.049733489 0.75214156 0.65712225
-0.073766882 0.7572028 0.64900105
-0.099447054 0.765316 0.63592586
-0.12274142 0.77522498 0.61964569
-0.14767549 0.78442396 0.60238775
-0.17813976 0.79162645 0.58446025
-0.20500928 0.80454571 0.55738442
-0.2281388 0.8098292 0.54048992
-0.24406999 0.81816856 0.52060547
-0.26574888 0.82883409 0.49235311
-0.29672046 0.8304764 0.47145086
0.14854485 0.61456684 0.77475288
0.11284061 0.64019754 0.75987769
0.095491531 0.6527002 0.75157422
0.081511757 0.65919617 0.74754013
0.069974542 0.66247 0.74581302
0.061758683 0.6642516 0.74495348
0.057003308 0.66815772 0.74183279
0.049034748 0.66979055 0.74092929
0.044836862 0.67528807 0.73618998
0.03408024 0.68092046 0.73156399
0.018341591 0.69072285 0.72288694
0.0078861145 0.70095017 0.71316665
-0.0080129986 0.70769858 0.70646905
-0.010105674 0.71623002 0.69779111
-0.014618985 0.72636628 0.68715232
-0.021908906 0.73774071 0.67472857
-0.023592261 0.74621814 0.66528332
-0.027491688 0.75259604 0.65790835
-0.03991737 0.75715317 0.65201663
-0.060658698 0.75971806 0.64741717
-0.086750137 0.76481919 0.63837765
-0.11995249 0.77447109 0.62113277
-0.13878624 0.77986608 0.61036651
-0.1694428 0.78968253 0.58965299
-0.19467163 0.79809693 0.57021421
-0.22110219 0.80547466 0.54984033
-0.24245824 0.81290159 0.52953281
-0.26452799 0.82214076 0.50409276
-0.2907546 0.83139547 0.47354337
-0.31844527 0.8347868 0.44913651
0.11401892 0.63866075 0.76099417
0.094624712 0.65221983 0.75210069
0.086935373 0.66207999 0.74437378
0.077884464 0.66484372 0.74291105
0.067907522 0.66701668 0.74194158
0.058274747 0.66911936 0.74086661
0.050024022 0.67277748 0.73815179
0.043156037 0.67806087 0.7337377
0.030089683 0.68481019 0.7281
0.016954614 0.69375416 0.7200123
0.0062897393 0.70424161 0.70993253
-0.012316105 0.71428939 0.69974208
-0.02153906 0.72173502 0.69183425
-0.028057729 0.7264495 0.68664685
-0.030667966 0.73465611 0.67774618
-0.03398544 0.74329429 0.66810073
-0.034089073 0.75017018 0.66036553
-0.035839159 0.75469929 0.65509124
-0.050243944 0.76022871 0.6477097
-0.073460189 0.76660445 0.63790376
-0.09581195 0.77306135 0.6270536
-0.12760262 0.77969728 0.6130169
-0.15187753 0.79008144 0.59388933
-0.18254787 0.79609228 0.57698645
-0.21165606 0.80364552 0.55619744
-0.23495814 0.81280102 0.53305645
-0.26340766 0.82046035 0.50740637
-0.28611558 0.82700129 0.48394911
-0.31418316 0.83499169 0.45174973
-0.34059672 0.83913955 0.42407393
0.094360665 0.65259928 0.75180466
0.079433617 0.66177301 0.74548426
0.08383498 0.66773916 0.73965945
0.073625122 0.67105764 0.73774046
0.061883143 0.67574483 0.73453346
0.050607956 0.67986532 0.73158867
0.039677823 0.68610698 0.72641784
0.031466628 0.69138039 0.72180538
0.018711332 0.69748234 0.71635764
0.0019440137 0.70807433 0.70613523
-0.01035923 0.71944316 0.69447407
-0.023321804 0.72712033 0.68611378
-0.031647311 0.73320689 0.67926881
-0.041342645 0.740157 0.67116198
-0.041595347 0.74546319 0.66524767
-0.044218464 0.74893432 0.66116724
-0.042135899 0.75594976 0.65327217
-0.045801562 0.762528 0.64533191
-0.059741332 0.76744853 0.63832102
-0.081510591 0.77500718 0.62667368
-0.10594956 0.78189736 0.61433802
-0.13616467 0.78994834 0.59786353
-0.16309124 0.8006977 0.57644119
-0.19559262 0.80456918 0.56072449
-0.22452552 0.80973434 0.54214259
-0.2530397 0.81808369 0.51643972
-0.28334318 0.82784983 0.48412943
-0.31047655 0.83492168 0.45443383
-0.33460423 0.84068695 0.4257763
-0.35877292 0.84388809 0.39891715
0.07560753 0.66240299 0.7453226
0.075357705 0.66956983 0.73891641
0.075474043 0.67629676 0.73275259
0.066207073 0.68275423 0.72764228
0.055317899 0.68971657 0.72196329
0.042021703 0.6964317 0.7163917
0.029204318 0.70424337 0.70935772
0.015810103 0.7093552 0.70467385
0.0028820856 0.7161741 0.69791572
-0.012389082 0.72555441 0.68805328
-0.027837328 0.73958901 0.67248284
-0.03441435 0.74364216 0.66769154
-0.044015322 0.75163066 0.65811397
-0.052009339 0.75831219 0.64981355
-0.052004383 0.76395801 0.64316693
-0.058203914 0.77003217 0.6353446
-0.055034433 0.77839094 0.62536289
-0.056901762 0.78380471 0.61839499
-0.072844771 0.78383443 0.61668244
-0.097758119 0.7925642 0.60190143
-0.13071369 0.79966635 0.58604407
-0.15381811 0.80595246 0.57164729
-0.17324219 0.81049752 0.55953633
-0.20920254 0.8125732 0.54402122
-0.24335932 0.81568943 0.52481139
-0.27143322 0.82328721 0.49851999
-0.30286709 0.83193581 0.46492401
-0.33199795 0.83955976 0.4300195
-0.35654236 0.84341278 0.40191097
-0.37051457 0.84563371 0.38421684
0.068480324 0.68183082 0.72829746
0.069318901 0.68290791 0.72720814
0.067253283 0.69036497 0.72032854
0.053790739 0.69833469 0.71374731
0.045458018 0.7047238 0.70802397
0.033727123 0.71265986 0.70069852
0.020223329 0.72320113 0.69034132
0.0040875277 0.72678058 0.68685754
-0.010694224 0.73433905 0.6786986
-0.026859631 0.74470152 0.66685696
-0.039836111 0.75441832 0.65518401
-0.050416342 0.76269787 0.6447869
-0.057816987 0.76979114 0.63567192
-0.061912515 0.77605219 0.62762237
-0.064017956 0.78008755 0.62238663
-0.069836327 0.78548265 0.61493081
-0.069304487 0.79211244 0.60642788
-0.07005567 0.79465071 0.60301116
-0.082685672 0.80217152 0.59134079
-0.11253345 0.805647 0.58160908
-0.14535775 0.81153416 0.56593589
-0.16552628 0.81455724 0.55596542
-0.18939364 0.81753366 0.54384627
-0.22289376 0.81701829 0.53178894
-0.25671084 0.81992681 0.51168308
-0.29579154 0.82772638 0.47684002
-0.32531349 0.83501012 0.4437671
-0.35979415 0.84074824 0.40458692
-0.37547562 0.84500678 0.3807645
-0.38492244 0.84617566 0.36853964
0.064228702 0.70133741 0.70992994
0.061867409 0.70378325 0.70771574
0.055411499 0.70906017 0.70296746
0.041516627 0.71979165 0.69294758
0.030256914 0.72557323 0.68747946
0.02209879 0.73437744 0.67838147
0.0072987563 0.74486762 0.66717236
-0.0097529302 0.75032418 0.66099811
-0.024411105 0.75748322 0.65239809
-0.040384293 0.76524795 0.64246765
-0.054751942 0.77166964 0.63366252
-0.064632598 0.7778203 0.62515454
-0.066078452 0.78106339 0.62094575
-0.07153258 0.78760544 0.61201369
-0.075489326 0.79419749 0.60295249
-0.079961949 0.79973848 0.59499953
-0.078496799 0.80417846 0.58918185
-0.08135695 0.80913547 0.58196292
-0.093673549 0.81063315 0.57801312
-0.12445572 0.81401525 0.56735346
-0.15539132 0.81959578 0.55146741
-0.17706204 0.82135679 0.54223801
-0.19989993 0.82294984 0.53178339
-0.23517508 0.82346234 0.51633561