# vtk DataFile Version 2.0
Grain example
ASCII
DATASET UNSTRUCTURED_GRID
POINTS 900 float
9.7600005 -11.369694 8.535876
9.2248947 -11.888266 8.4726892
8.6947572 -12.402291 8.4148238
8.1576563 -12.91821 8.3541731
7.6282419 -13.433918 8.2958302
7.0581048 -13.98528 8.2518318
6.4975433 -14.5267 8.2187169
5.8950327 -15.052683 8.2082201
5.2479421 -15.522244 8.1915774
4.5669526 -15.963186 8.1727359
3.8288969 -16.404924 8.1533361
3.073049 -16.844677 8.1052179
2.3180622 -17.259251 8.0676098
1.6632687 -17.561417 8.047866
1.0822703 -17.765072 8.0448892
0.50311555 -17.961045 8.0333817
-0.06869115 -18.15494 8.032974
-0.58293852 -18.2755 8.0547017
-1.0872827 -18.391949 8.0809656
-1.5670208 -18.495339 8.0952775
-2.0588161 -18.602407 8.1127341
-2.5404248 -18.705913 8.1183291
-3.0920699 -18.794602 8.1097225
-3.8396712 -18.854148 8.1213921
-4.6721117 -18.893891 8.124743
-5.485982 -18.969665 8.0537479
-6.3305364 -19.080305 7.9434181
-7.1784375 -19.201269 7.8279135
-7.9653158 -19.317918 7.674902
-8.7089205 -19.440033 7.4996546
9.7305648 -11.548322 8.042043
9.1981775 -12.071232 7.9758408
8.6619746 -12.591243 7.9158147
8.1243252 -13.107881 7.856745
7.5908644 -13.624297 7.7888154
7.0350416 -14.150963 7.718375
6.4549782 -14.707457 7.6612878
5.8554734 -15.243677 7.6231023
5.1901466 -15.738168 7.5950933
4.4989704 -16.190859 7.5400697
3.7508979 -16.648733 7.4868136
2.9935682 -17.090104 7.4335429
2.2393728 -17.5076 7.3868444
1.5601805 -17.842453 7.3548573
0.94758331 -18.071619 7.3364155
0.39491618 -18.257357 7.3326701
-0.15203016 -18.437225 7.3410982
-0.67302041 -18.608964 7.3481491
-1.1910683 -18.749154 7.3851631
-1.6878158 -18.865183 7.4137942
-2.1811919 -18.972758 7.4224591
-2.6626154 -19.072448 7.4296632
-3.1799629 -19.164035 7.4297873
-3.8143383 -19.234549 7.4290655
-4.6487007 -19.274344 7.4318395
-5.4899079 -19.374659 7.3266849
-6.3475987 -19.495465 7.2084157
-7.1981002 -19.62051 7.0823686
-8.0307185 -19.745148 6.9372688
-8.7816479 -19.868315 6.7594745
9.705026 -11.715906 7.5518033
9.169466 -12.251545 7.4815288
8.6308372 -12.778039 7.4120636
8.0920578 -13.294197 7.3366055
7.5377283 -13.808371 7.2554301
6.987763 -14.324729 7.1664974
6.4153766 -14.871164 7.087278
5.7989256 -15.420425 7.018558
5.1075256 -15.957075 6.9414473
4.4048181 -16.421296 6.8621349
3.6688639 -16.882377 6.7948163
2.913218 -17.332741 6.7343028
2.153799 -17.756188 6.6836696
1.4485014 -18.120294 6.6362814
0.84576084 -18.357758 6.6254349
0.30947504 -18.534094 6.630255
-0.23793495 -18.715148 6.638067
-0.76548763 -18.888584 6.6425281
-1.2868678 -19.059414 6.6498361
-1.7956909 -19.197852 6.6861663
-2.3048299 -19.330428 6.7207305
-2.7866998 -19.437969 6.7408623
-3.2975635 -19.527673 6.7436283
-3.8281753 -19.607495 6.7284562
-4.6552491 -19.676679 6.7132307
-5.5067892 -19.79024 6.5915635
-6.3672624 -19.914704 6.4628708
-7.2266046 -20.047409 6.3230177
-8.0689442 -20.176578 6.1732617
-8.8386161 -20.289089 6.0187808
9.6760106 -11.87555 7.0455059
9.1362285 -12.409492 6.9645426
8.5821126 -12.948434 6.861142
8.025651 -13.479914 6.7580726
7.4775166 -13.992555 6.6630551
6.9244143 -14.509744 6.5627153
6.3579492 -15.030968 6.4649998
5.7026776 -15.581465 6.3764291
5.0005022 -16.146613 6.256138
4.294134 -16.6447 6.149774
3.5751418 -17.110137 6.0774534
2.816488 -17.567087 6.0133876
2.0648589 -17.982038 5.9644033
1.4215391 -18.285594 5.9677308
0.82161273 -18.528653 5.9798038
0.267351 -18.71985 5.98963
-0.27623214 -18.8979 5.9957075
-0.81168413 -19.074479 6.0006694
-1.3290554 -19.245899 6.0129597
-1.8386831 -19.414974 6.0284423
-2.3630458 -19.570497 6.0614483
-2.8739959 -19.723775 6.0870525
-3.3976488 -19.848302 6.0800585
-3.9672414 -19.952828 6.0435542
-4.6577017 -20.049933 5.9914005
-5.5058961 -20.162227 5.8712158
-6.3721784 -20.277685 5.7445152
-7.2284888 -20.390267 5.6137394
-8.0586174 -20.493519 5.4780744
-8.8210526 -20.586645 5.3335854
9.6337909 -12.032154 6.472618
9.0817685 -12.570985 6.3647873
8.528935 -13.106927 6.2568833
7.967318 -13.644518 6.1498335
7.4114044 -14.175279 6.0451828
6.8533451 -14.693053 5.9370768
6.2680527 -15.205731 5.8272412
5.5900716 -15.747855 5.7070699
4.8887549 -16.315005 5.5862121
4.1934586 -16.825838 5.4737882
3.5003501 -17.272187 5.4004696
2.7799906 -17.673916 5.3659105
2.1010446 -18.031148 5.3655179
1.4678875 -18.335194 5.3756481
0.85251564 -18.609801 5.390722
0.28111519 -18.809823 5.4001265
-0.26715421 -18.99233 5.4152269
-0.79816244 -19.163347 5.4359323
-1.3182857 -19.334499 5.4556647
-1.8314818 -19.50741 5.4644899
-2.3511716 -19.677109 5.476811
-2.8664059 -19.830653 5.5091969
-3.4335833 -19.973939 5.4982372
-4.0196825 -20.092759 5.4633305
-4.6405964 -20.189125 5.394998
-5.4213375 -20.307785 5.2673264
-6.2957929 -20.430302 5.1435142
-7.1507932 -20.545941 5.0118717
-7.9905538 -20.653934 4.8714917
-8.7720248 -20.741101 4.7076719
9.5979425 -12.175814 5.8601058
9.0246311 -12.731388 5.7514932
8.4712496 -13.268049 5.6451696
7.9099066 -13.805281 5.5373296
7.3381888 -14.3456 5.416088
6.7724518 -14.877739 5.2958439
6.1537792 -15.370995 5.1883414
5.509314 -15.85237 5.0904198
4.8312021 -16.374829 5.0046427
4.1478456 -16.859114 4.9064893
3.4796309 -17.294205 4.8205671
2.8161671 -17.705417 4.7701348
2.1425227 -18.06195 4.7674949
1.5107214 -18.37261 4.7834496
0.88841712 -18.673032 4.7941281
0.30079225 -18.893838 4.8269536
-0.2475649 -19.076761 4.8499867
-0.78349888 -19.252612 4.8713638
-1.3102419 -19.426038 4.8882564
-1.8232908 -19.597026 4.897908
-2.3427662 -19.769489 4.9091644
-2.8786445 -19.941592 4.9036345
-3.47466 -20.085754 4.9002414
-4.0705491 -20.207869 4.8692907
-4.7085921 -20.327218 4.790706
-5.3409142 -20.445855 4.6490354
-6.2161506 -20.567632 4.5171709
-7.0782953 -20.684745 4.3828625
-7.9293592 -20.794658 4.2303044
-8.7424144 -20.864751 4.0480586
9.5812451 -12.319372 5.2445351
8.9763649 -12.891346 5.1378962
8.4128409 -13.427486 5.0339344
7.8575686 -13.939618 4.9350291
7.2970572 -14.437547 4.8383661
6.7287633 -14.937459 4.7406778
6.0894716 -15.430892 4.6393375
5.4452355 -15.910804 4.5400463
4.7811122 -16.406734 4.4366089
4.1240704 -16.863712 4.3592205
3.4971833 -17.26678 4.2921954
2.8509981 -17.676561 4.2371798
2.1826126 -18.068701 4.1991946
1.5600564 -18.400254 4.1971126
0.94273772 -18.697085 4.2228885
0.33678983 -18.954657 4.2598211
-0.22426987 -19.154536 4.2885313
-0.76155965 -19.336601 4.3110478
-1.3019494 -19.515353 4.3258912
-1.8174286 -19.687472 4.3343784
-2.361255 -19.865975 4.3239432
-2.8969522 -20.038501 4.318294
-3.4962467 -20.190768 4.2943923
-4.1308206 -20.315734 4.2673573
-4.768253 -20.437581 4.1798025
-5.3795603 -20.556965 4.031708
-6.1421803 -20.685909 3.8725671
-7.0122961 -20.815627 3.7348827
-7.8974991 -20.910497 3.5704606
-8.7228869 -20.959069 3.3730986
9.5703843 -12.455253 4.6490195
8.9605911 -12.991504 4.5677122
8.3914034 -13.483686 4.485617
7.8289791 -13.982147 4.3932648
7.2615015 -14.482964 4.2944274
6.6782655 -14.983307 4.1912295
6.0312689 -15.478905 4.0888121
5.3743146 -15.965429 3.9831506
4.763154 -16.403691 3.9002317
4.1340251 -16.840163 3.8352027
3.5071377 -17.243232 3.7681776
2.8803523 -17.645998 3.7053688
2.2311517 -18.027934 3.6811514
1.6201372 -18.36254 3.6730326
0.99830506 -18.688447 3.677526
0.38063502 -18.995137 3.6869891
-0.20608576 -19.218049 3.7192173
-0.74331677 -19.405945 3.7434394
-1.2987489 -19.599539 3.7560148
-1.8362787 -19.783115 3.7493965
-2.3787256 -19.960302 3.7398967
-2.9253095 -20.134106 3.7346441
-3.5350608 -20.286277 3.6955672
-4.1760337 -20.42114 3.6463926
-4.8349781 -20.539781 3.5417337
-5.4598393 -20.652928 3.3719426
-6.097123 -20.760317 3.1968429
-6.9675758 -20.874353 3.0410656
-7.8947835 -20.939079 2.8442748
-8.7371577 -20.972339 2.636052
9.5702204 -12.489435 4.1351926
8.9588949 -13.022427 4.0550879
8.3726961 -13.520481 3.9566659
7.7972044 -14.024241 3.8578697
7.2259396 -14.530363 3.7517114
6.6229913 -15.029082 3.6424625
5.9729779 -15.513657 3.5396015
5.3490612 -15.966348 3.4643885
4.7533008 -16.402173 3.3940255
4.141979 -16.815944 3.3149443
3.5215414 -17.212845 3.2583928
2.9036028 -17.605968 3.2081676
2.2789287 -17.977787 3.1728071
1.6738201 -18.319629 3.1614139
1.0600817 -18.648212 3.1610586
0.43292296 -18.967666 3.1686747
-0.17605961 -19.248612 3.1748834
-0.73252313 -19.470332 3.167569
-1.3077498 -19.66818 3.1686265
-1.8563254 -19.858923 3.1640241
-2.4011807 -20.043553 3.1548595
-2.9595777 -20.217552 3.1420489
-3.5807692 -20.366795 3.09273
-4.2422695 -20.494376 3.0080758
-4.9000511 -20.624029 2.8708156
-5.5420481 -20.724427 2.7012673
-6.2044928 -20.803599 2.5060105
-6.9666618 -20.841759 2.2905191
-7.9038606 -20.885355 2.0831948
-8.7425275 -20.918192 1.8762155
9.5672856 -12.518032 3.6237296
8.949206 -13.049354 3.5382262
8.3334343 -13.567119 3.4396408
7.7549604 -14.068545 3.327185
7.1885384 -14.570403 3.2175598
6.5718575 -15.054668 3.1188697
5.9586206 -15.502563 3.0461573
5.3458909 -15.948148 2.9709773
4.745009 -16.385092 2.9027417
4.1501251 -16.787327 2.8331125
3.5442723 -17.170525 2.7701029
2.920828 -17.564951 2.7136914
2.3190352 -17.928809 2.6719304
1.7225869 -18.262995 2.6539673
1.1197398 -18.599317 2.6414129
0.49734319 -18.917649 2.6447655
-0.13771839 -19.219465 2.6471246
-0.73515739 -19.459898 2.6305044
-1.314586 -19.680693 2.6047383
-1.8674477 -19.891977 2.582397
-2.4337958 -20.101284 2.5569636
-3.0080531 -20.276189 2.5270081
-3.6593351 -20.409458 2.4429886
-4.3215591 -20.535353 2.3588123
-4.9810124 -20.656354 2.1920802
-5.6489741 -20.740793 1.9930821
-6.3500656 -20.782439 1.7816287
-7.0558667 -20.796369 1.5354002
-7.9081777 -20.829666 1.3202262
-8.7245942 -20.837547 1.1623621
9.5647182 -12.539563 3.1071879
8.9334156 -13.075071 3.0148866
8.2960026 -13.608724 2.9157333
7.7157944 -14.105018 2.8037567
7.1506329 -14.584359 2.6962107
6.5591504 -15.03087 2.6234588
5.9488588 -15.474571 2.5512751
5.3430713 -15.90807 2.4911555
4.7504502 -16.333505 2.4355863
4.156832 -16.738689 2.3651206
3.5616582 -17.10162 2.2951678
2.9404718 -17.502305 2.2378739
2.3408809 -17.863768 2.1946768
1.7680481 -18.195046 2.1603372
1.1710346 -18.528991 2.1341801
0.54900378 -18.855477 2.1200906
[...]
POINT_DATA 900
VECTORS normals float
0.73298611 -0.63877116 0.23388622
0.71108436 -0.6677927 0.22002714
0.69545801 -0.68751475 0.20895363
0.68304924 -0.702492 0.19987178
0.66784816 -0.7179407 0.19631605
0.648347 -0.73599794 0.19481579
0.62848795 -0.75160245 0.20024149
0.60319639 -0.7701577 0.20739149
0.56777862 -0.79436608 0.21589344
0.52818464 -0.81776673 0.22864505
0.48025761 -0.84363246 0.24007685
0.44346916 -0.85809473 0.25886009
0.40044176 -0.87338386 0.27721295
0.36044801 -0.88463078 0.29581346
0.32461959 -0.88855046 0.32419161
0.29804091 -0.89063129 0.34343488
0.27313042 -0.89163499 0.36109115
0.25076489 -0.88980993 0.38125486
0.22816997 -0.88873696 0.39759915
0.20428975 -0.88276191 0.4230805
0.17952005 -0.87884183 0.44205157
0.16587653 -0.87326325 0.45814439
0.14297502 -0.87324648 0.46583123
0.10282408 -0.87077565 0.48080868
0.059901118 -0.86254188 0.50242747
0.044289078 -0.85773 0.51218914
0.029867396 -0.85111318 0.52413195
0.023102047 -0.84172324 0.53941475
0.017530148 -0.83423895 0.55112437
0.011286809 -0.83203968 0.55460128
0.73032508 -0.64903624 0.21301931
0.71115391 -0.67365723 0.20111204
0.69329713 -0.6939777 0.19425252
0.67735718 -0.71171132 0.1861565
0.66327494 -0.7265391 0.1794639
0.64664892 -0.7409148 0.18135717
0.63221554 -0.7528222 0.18320004
0.60805488 -0.77256366 0.18279679
0.56972827 -0.80061532 0.18553924
0.52425702 -0.82974505 0.19151433
0.48646351 -0.84996673 0.20226174
0.45053975 -0.8658204 0.21764414
0.41601524 -0.87757217 0.23832416
0.37797018 -0.88762691 0.26316729
0.34322323 -0.89456648 0.2862667
0.3143499 -0.89892726 0.30514575
0.29381686 -0.90036309 0.32096409
0.27173957 -0.90188991 0.33578594
0.24816352 -0.90113275 0.3554921
0.22671 -0.90035615 0.37143154
0.20531383 -0.89726965 0.3908368
0.19076935 -0.89570235 0.40165202
0.15841014 -0.89203097 0.42330482
0.11844536 -0.88836371 0.44359962
0.082550277 -0.88923945 0.44993184
0.05720345 -0.88807641 0.45612285
0.048602341 -0.88081393 0.4709614
0.045289615 -0.87442499 0.48304222
0.033555439 -0.87331856 0.48599252
0.026132255 -0.87458516 0.48416722
0.72589235 -0.6603492 0.19240382
0.70568181 -0.68395794 0.18497221
0.69068237 -0.6992631 0.18436103
0.67601796 -0.71543532 0.17649936
0.66106146 -0.73152569 0.16693686
0.64834749 -0.74418866 0.16071331
0.62987021 -0.76072979 0.15669622
0.60046686 -0.78522272 0.15121119
0.56436926 -0.81118069 0.15320975
0.5247367 -0.83764678 0.15165509
0.49895927 -0.85142779 0.16158703
0.46747808 -0.86452265 0.18456662
0.43512157 -0.87717889 0.2030429
0.39257827 -0.8908799 0.22850666
0.36348268 -0.89935615 0.24297913
0.33630459 -0.90637906 0.25568776
0.31255326 -0.91153547 0.26723312
0.29392434 -0.91460079 0.27769387
0.27330577 -0.91640095 0.29242649
0.25176658 -0.91715827 0.3089244
0.22977873 -0.91614555 0.3284495
0.21602187 -0.91287538 0.34640018
0.1743461 -0.9118626 0.37163158
0.13613367 -0.91225597 0.3863375
0.094441595 -0.91446752 0.39348435
0.071235441 -0.91376435 0.39995029
0.065600574 -0.90656557 0.41693576
0.057682299 -0.90772066 0.41559108
0.050560105 -0.90900181 0.41371413
0.039698576 -0.91431336 0.40305719
0.72113395 -0.67058034 0.174034
0.70090634 -0.6923197 0.17153347
0.68185046 -0.71202594 0.16762759
0.67030323 -0.72592771 0.15402121
0.65686354 -0.74037327 0.14275052
0.64579572 -0.75141102 0.13538602
0.62839677 -0.76758657 0.12620759
0.59658912 -0.79435672 0.11436267
0.56270672 -0.81914933 0.11115542
0.53286332 -0.83780115 0.11893658
0.50645211 -0.85322651 0.12454232
0.48402452 -0.8637186 0.14039389
0.44603112 -0.87956348 0.16560292
0.41382679 -0.89227418 0.18053856
0.37895997 -0.90392508 0.19826444
0.34813693 -0.91414922 0.20768217
0.32323458 -0.92097654 0.21753531
0.3070185 -0.92473655 0.2249488
0.29408922 -0.92742713 0.23106372
0.27842143 -0.92840839 0.24604751
0.25644109 -0.92965755 0.26452753
0.23670817 -0.93180381 0.27515613
0.1921558 -0.93493999 0.29826727
0.14889203 -0.94038164 0.30579984
0.11448439 -0.93859337 0.32547783
0.08641707 -0.93823851 0.33502327
0.078713949 -0.93513898 0.34542611
0.071855887 -0.93763634 0.34011003
0.061894449 -0.93900708 0.33828211
0.053159019 -0.94260889 0.32964012
0.71774288 -0.67718974 0.16204697
0.69884411 -0.69913725 0.1510762
0.68273117 -0.71764166 0.13736297
0.6649157 -0.73612145 0.12653982
0.65455511 -0.7467481 0.11800372
0.64000684 -0.76152959 0.10229331
0.62062897 -0.77949285 0.084915106
0.59368208 -0.80161861 0.070350451
0.56634389 -0.82167774 0.064033479
0.54284945 -0.83681398 0.071111456
0.51276686 -0.85341348 0.093571264
0.49372334 -0.86347685 0.10317461
0.45778027 -0.8799546 0.12695327
0.42452059 -0.89439313 0.14086589
0.3897047 -0.90863561 0.15003856
0.35830157 -0.91922714 0.16322211
0.33091829 -0.9270861 0.17608081
0.31619134 -0.93014823 0.18667431
0.30525535 -0.93251169 0.1929796
0.2876247 -0.93622196 0.20189224
0.26957904 -0.93882009 0.21434546
0.24701213 -0.94259144 0.22473626
0.20189368 -0.94871071 0.24328364
0.16281607 -0.95378845 0.25254411
0.13082073 -0.95642909 0.26101598
0.10742624 -0.9567351 0.27040257
0.091170814 -0.95483967 0.28278805
0.078778383 -0.95969401 0.26978024
0.069512753 -0.96564474 0.25039612
0.065425348 -0.96513665 0.2534379
0.70833201 -0.69176608 0.14044735
0.69103745 -0.71163462 0.12666257
0.67155238 -0.73336529 0.1057958
0.6605717 -0.74522463 0.091023571
0.65232411 -0.7536989 0.080070101
0.63127746 -0.77262082 0.067422786
0.61033985 -0.79102436 0.042020577
0.58976089 -0.80708462 0.028222413
0.5702534 -0.82092333 0.029932362
0.55156954 -0.83330875 0.036980774
0.52258999 -0.85105572 0.051028106
0.49778018 -0.86549972 0.055902846
0.47793025 -0.87547453 0.071603208
0.43841591 -0.89399344 0.092559296
0.40340555 -0.90829231 0.11076574
0.37148593 -0.91931239 0.12985735
0.34519265 -0.92680784 0.14788262
0.32405829 -0.93275993 0.15794029
0.31206443 -0.93555993 0.16535842
0.29478953 -0.94018345 0.17074607
0.27672485 -0.94454457 0.1768019
0.24783611 -0.95172697 0.18108846
0.20494838 -0.96100928 0.18562685
0.17652411 -0.96484404 0.19471829
0.14153823 -0.96754548 0.20933867
0.1173324 -0.9698983 0.21337852
0.10246047 -0.97370695 0.20346163
0.084476011 -0.97526917 0.20423968
0.075969078 -0.98109829 0.17797428
0.068182835 -0.98360953 0.1669233
0.70395605 -0.70090798 0.11477755
0.68332129 -0.72368434 0.096710879
0.6684409 -0.74003006 0.074446419
0.66021427 -0.74873329 0.05929234
0.64590164 -0.76208205 0.045188721
0.62605066 -0.77925452 0.02868722
0.60560746 -0.79562549 0.014821668
0.58808345 -0.80878042 0.0056640101
0.57479515 -0.8182948 0.0020382449
0.55590284 -0.83123967 0.0035548602
0.53594383 -0.84423717 0.0052729299
0.50889223 -0.86065631 0.017303386
0.48834073 -0.87222582 0.027303018
0.45639111 -0.88872571 0.043287075
0.42244844 -0.90395353 0.066372675
0.38942039 -0.91682007 0.088276349
0.35623735 -0.92747373 0.11352283
0.33200507 -0.93409629 0.1312888
0.31654925 -0.93839409 0.13861134
0.3008584 -0.94263582 0.14464418
0.27993749 -0.94819199 0.15022301
0.25112195 -0.95651185 0.14840094
0.21724739 -0.9650036 0.14687279
0.1808645 -0.97112864 0.15555451
0.15111474 -0.97560877 0.1592227
0.12329853 -0.98053651 0.15279274
0.10811536 -0.98291325 0.14897186
0.087998341 -0.98566474 0.14394902
0.075616397 -0.99111811 0.10939401
0.072348494 -0.99231406 0.10039175
0.68969042 -0.71951724 0.08137604
0.66880334 -0.74117009 0.058042989
0.66150093 -0.74878559 0.041673326
0.65464263 -0.75543495 0.027587434
0.63972536 -0.76846762 0.014456349
0.62097195 -0.78382769 0.0028269936
0.59955478 -0.80032487 -0.0037630705
0.58364969 -0.8119159 -0.012066663
0.57281688 -0.81954209 -0.015217504
0.55627428 -0.83085602 -0.01540108
0.54076937 -0.84088192 -0.022047158
0.51903284 -0.85453263 -0.019465337
0.49688762 -0.86775505 -0.010191598
0.47101111 -0.88212352 0.0025754291
0.44354163 -0.89606808 0.018243625
0.40756869 -0.912212 0.041916925
0.37335267 -0.92563485 0.061708217
0.34924256 -0.93325041 0.084102949
0.32522106 -0.94086359 0.094905073
0.30851295 -0.94562032 0.10306297
0.28575611 -0.95216282 0.1083024
0.25722506 -0.9595998 0.11403285
0.21593777 -0.96981335 0.11328262
0.18650209 -0.97574371 0.11463501
0.15501601 -0.9813802 0.11341493
0.1274701 -0.98701181 0.097770408
0.1082107 -0.9912895 0.07507043
0.087893652 -0.99371732 0.069286312
0.078184167 -0.99614186 0.039857692
0.073103684 -0.99730762 -0.0057753053
0.68336302 -0.72735035 0.063059179
0.66405709 -0.74677449 0.036824615
0.65565771 -0.75478103 0.020458796
0.64867125 -0.76100501 0.0098485221
0.63559501 -0.77199364 -0.0066943886
0.61338476 -0.78954905 -0.01927273
0.5916322 -0.80573922 -0.027489054
0.58101664 -0.81318528 -0.033902353
0.57282306 -0.81897731 -0.033910382
0.55942672 -0.827967 -0.038889509
0.54343239 -0.83820226 -0.045806261
0.5279903 -0.84787476 -0.048318006
0.50338452 -0.86311736 -0.040403414
0.48749651 -0.87261155 -0.02993717
0.45856918 -0.8884841 -0.017615917
0.43182798 -0.90195397 0.0019057943
0.39709936 -0.91758046 0.018926005
0.36642104 -0.92993159 0.031029971
0.34004265 -0.93927843 0.046119718
0.31709865 -0.94659148 0.058420972
0.2906978 -0.95468606 0.063791227
0.25620851 -0.96429461 0.067030647
0.22026112 -0.97311833 0.06727369
0.18805911 -0.98017675 0.062348366
0.1589273 -0.98628108 0.044628882
0.12555842 -0.99173445 0.026416959
0.1075502 -0.99416211 -0.0086406693
0.088446355 -0.99517165 -0.042551489
0.071649034 -0.99354994 -0.08789154
0.067559007 -0.98821203 -0.13737815
0.67379572 -0.7376512 0.043243851
0.65735129 -0.7533583 0.018453756
0.65085607 -0.75918401 0.0050999516
0.64379484 -0.7651549 -0.0081349013
0.62883701 -0.7772388 -0.021537546
0.60689721 -0.79385608 -0.038318346
0.59403576 -0.80295701 -0.048801079
0.5787727 -0.81392401 -0.050496184
0.57066261 -0.8188039 -0.062484816
0.55946804 -0.82673076 -0.059260167
0.54001936 -0.83910197 -0.065475057
0.52850585 -0.84593626 -0.07122786
0.50504042 -0.86070108 -0.064248223
0.48935328 -0.87011479 -0.058597099
0.46458776 -0.88412998 -0.04972312
0.43946138 -0.8976161 -0.034044648
0.40811723 -0.91273031 -0.019071046
0.37977141 -0.92502652 -0.009981242
0.34735845 -0.93773231 -0.00046460737
0.32291904 -0.94640924 0.0057314741
0.28812821 -0.95753126 0.010771411
0.24689566 -0.96904044 -0.0017776183
0.21425628 -0.9766612 -0.015071259
0.18041035 -0.98247534 -0.046843452
0.15219091 -0.98637876 -0.062408865
0.12127414 -0.98874559 -0.087605556
0.096513547 -0.9868187 -0.12989996
0.075204151 -0.98292759 -0.16792168
0.054402461 -0.97198468 -0.22866167
0.056600126 -0.96533534 -0.25480211
0.66556766 -0.74598271 0.023010531
0.6491783 -0.76062721 0.0037138147
0.64294591 -0.76586521 -0.0084277206
0.63570248 -0.77157187 -0.023647596
0.62232062 -0.78182078 -0.038383749
0.60203072 -0.79677205 -0.052089452
0.58978176 -0.8042361 -0.073224121
0.57825082 -0.81225904 -0.076558714
0.56820742 -0.8190277 -0.079586104
0.55728022 -0.8259584 -0.085038113
0.54416873 -0.83366391 -0.094259614
0.52858602 -0.84293813 -0.10026032
0.51354307 -0.85244604 -0.098026872
0.4931407 -0.86544147 -0.088449457
0.47547592 -0.8753091 -0.08807174
0.4498813 -0.88953538 -0.079584105
0.41787494 -0.90623455 -0.064183221
0.38381224 -0.92156794 -0.058315581
0.35099784 -0.93451849 -0.058955184
0.32471231 -0.94403829 -0.057910533
0.2894876 -0.95501115 -0.064425424
0.24368546 -0.96593713 -0.087079564
0.207369 -0.97109748 -0.11818539
0.16982827 -0.97645371 -0.13302824
0.14638013 -0.97551672 -0.16413405
0.11507674 -0.97218961 -0.20397234
0.084803876 -0.9636318 -0.25342072
0.063373607 -0.95494633 -0.28993325
0.045595759 -0.94278545 -0.33026749
0.034908348 -0.92855815 -0.36954184
0.65448427 -0.7560654 0.0039303149
0.64172266 -0.7668171 -0.013548931
0.63649182 -0.7708076 -0.027088918
0.62690266 -0.77790308 -0.043125918
0.61132616 -0.78907835 -0.06029657
0.59367839 -0.80107881 -0.076280459
0.58045234 -0.80920222 -0.090922213
0.58175796 -0.80672592 -0.10368686
0.56449715 -0.81812643 -0.10959981
0.55245607 -0.82601232 -0.11178525
0.54248752 -0.83093766 -0.12349049
0.52721416 -0.84040035 -0.1255885
0.51643777 -0.84627718 -0.13079361
0.49752371 -0.85877253 -0.12239238
0.48177544 -0.86808096 -0.11969909
0.45537201 -0.88239614 -0.11837813
0.42284385 -0.89914242 -0.11289812
0.38419506 -0.91665012 -0.11021216
0.35194344 -0.92945342 -0.11068947
0.3214529 -0.93883731 -0.12350115
0.28248103 -0.94927495 -0.13813597
0.23822754 -0.95813938 -0.15879724
0.19936037 -0.96046772 -0.19431212
0.16032917 -0.96173372 -0.22217742
0.12824944 -0.95341597 -0.27303859
0.10248481 -0.94494736 -0.31075931
0.075844622 -0.92735603 -0.36641286
0.055543567 -0.9218563 -0.38353079
0.04071425 -0.90745007 -0.41818264
0.026282561 -0.88787744 -0.45932873
0.65060959 -0.75907157 -0.022748813
0.63997558 -0.76767364 -0.033293122
0.63306425 -0.77272551 -0.046097108
0.62126998 -0.78096979 -0.064107759
0.60472923 -0.79202899 -0.083622023
0.59491509 -0.79791325 -0.097007646
0.57650302 -0.80933311 -0.11235738
0.57744538 -0.80700693 -0.12367965
0.56241761 -0.81621876 -0.13218686
0.54918696 -0.82419364 -0.13819744
0.53777052 -0.83050576 -0.14513115
0.52444053 -0.83847877 -0.14803878
0.51589626 -0.84272451 -0.15383903
0.50010143 -0.85348981 -0.14647082
0.48596792 -0.86243385 -0.14157342
0.46360951 -0.87433478 -0.14354412
0.43013949 -0.89009113 -0.15072424
0.38801521 -0.90876855 -0.1535706
0.34464343 -0.92320466 -0.17004133
0.30664363 -0.9326698 -0.18999141
0.26279887 -0.94181277 -0.209584
0.21958097 -0.94640813 -0.23684564
0.18462216 -0.94565186 -0.26768865
0.1530408 -0.93664681 -0.31507342
0.11323791 -0.92643263 -0.35902612
0.0850522 -0.91528054 -0.39373552
0.062192484 -0.89891926 -0.4336776
0.04359793 -0.88455828 -0.46438763
0.031243185 -0.87547857 -0.48224592
0.020634318 -0.86264706 -0.50538528
0.64289201 -0.76441916 -0.048509873
0.63505133 -0.77024532 -0.058582878
0.62957593 -0.77408937 -0.066481579
0.61584824 -0.784058 -0.077356385
0.60250159 -0.79233143 -0.095930889
0.58428427 -0.80403179 -0.11020336
0.57756202 -0.80650239 -0.12639624
0.57308336 -0.80907936 -0.13025384
0.56125625 -0.81497685 -0.14423647
0.55008796 -0.821623 -0.14946202
0.53351868 -0.83130917 -0.15582964
0.52873166 -0.83240461 -0.16596808
0.51574715 -0.83980841 -0.16948955
0.5026843 -0.8468923 -0.17344143
0.48459195 -0.85603434 -0.17993291
0.46042093 -0.86847346 -0.1837564
0.42440184 -0.88531044 -0.19002236
0.38345552 -0.90055366 -0.20485354
0.33627538 -0.91413382 -0.22644697
0.28780213 -0.92458028 -0.24964221
0.2389378 -0.92917908 -0.28201943
0.20068408 -0.93021325 -0.30729336
0.160106 -0.92329919 -0.34911986
0.1245253 -0.91395464 -0.38623874
0.098947873 -0.8988618 -0.42691544
0.073958881 -0.88517562 -0.45934106
0.048660212 -0.87316127 -0.48499647
0.029230828 -0.86221486 -0.50569862
0.02137344 -0.85299009 -0.52148929
0.014840569 -0.84319278 -0.53740645
0.6393201 -0.76630264 -0.063640244
0.63004599 -0.77290063 -0.075277224
0.62545467 -0.77569776 -0.084258188
0.60979217 -0.78644858 -0.098245281
0.59251662 -0.79767674 -0.11240936
0.57745475 -0.80626179 -0.12840535
0.57324994 -0.80741898 -0.13949585
0.56800511 -0.81065974 -0.14213015
0.56215162 -0.81226816 -0.15558276
0.54666122 -0.82176006 -0.16084749
0.52739804 -0.8334129 -0.16514915
0.52177458 -0.83511924 -0.1741469
0.50906275 -0.8403544 -0.18617091
0.49746445 -0.84405881 -0.20023449
0.47975201 -0.85259918 -0.20715367
0.45156115 -0.86535265 -0.21738748
0.42045224 -0.87676651 -0.23345321
0.37545046 -0.89112044 -0.25483587
0.3171475 -0.9029589 -0.28997016
0.26786745 -0.91089111 -0.31388597
0.21879761 -0.91257664 -0.3454439
0.18035327 -0.9105629 -0.37195147
0.13971418 -0.89827697 -0.41662746
0.10454022 -0.88943065 -0.44495445
0.076985626 -0.87706427 -0.47416399
0.055950802 -0.86334089 -0.50150973
0.035030109 -0.84799562 -0.52884433
0.019502803 -0.83472619 -0.55031975
0.012975086 -0.82554109 -0.56419284
0.0086499143 -0.81724105 -0.57623106
0.63484707 -0.76882387 -0.076674982
0.62844419 -0.77312186 -0.085676604
0.61847867 -0.78032584 -0.092605182
0.60630779 -0.78801776 -0.10685916
0.58828308 -0.79974624 -0.11970366
0.57527304 -0.80678951 -0.13472797
0.57032789 -0.80897087 -0.1424508
0.5659207 -0.81149776 -0.14561988
0.55964386 -0.81370267 -0.15712004
0.5409914 -0.82467915 -0.16502304
0.52704711 -0.83173905 -0.17444625
0.51985506 -0.83438026 -0.18319472
0.50491071 -0.8395659 -0.20048513
0.49324223 -0.84144369 -0.22064592
0.47048658 -0.84747141 -0.24583446
0.44590776 -0.85551231 -0.26318237
0.40695764 -0.86633556 -0.28956551
0.356472 -0.87786998 -0.31979996
0.30192186 -0.88922941 -0.34367753
0.24894884 -0.8946492 -0.37098151
0.19713674 -0.8922658 -0.40620051
0.15382408 -0.88744306 -0.43449162
0.11970112 -0.87686534 -0.46559513
0.086661308 -0.8672609 -0.49025336
0.058115985 -0.84943561 -0.52448229
0.040267452 -0.83771228 -0.54462525
0.023780446 -0.82225204 -0.56862648
0.011366819 -0.81019083 -0.58605598
0.0041327634 -0.80269959 -0.59636926
-0.0004370373 -0.79476547 -0.60691652
0.63342053 -0.76888342 -0.087159145
0.62693569 -0.77327831 -0.094827731
0.61548277 -0.78172422 -0.10044006
0.60505357 -0.7883215 -0.11162169
0.58376339 -0.80203054 -0.12636186
0.56962165 -0.8103643 -0.13726207
0.56602299 -0.81128067 -0.14642965
0.56237683 -0.81277096 -0.15210414
0.55442304 -0.81599021 -0.16363091
0.53793375 -0.82580142 -0.16934963
0.52149747 -0.83193452 -0.1895398
0.5060342 -0.83746994 -0.20633344
0.49259702 -0.83986672 -0.22797385
0.47788704 -0.84171258 -0.25128454
0.45698516 -0.84317033 -0.28324611
0.43117327 -0.84880889 -0.30596254
0.39369125 -0.85675067 -0.33314484
0.34315969 -0.86802695 -0.35884626
0.28053988 -0.87748725 -0.38899037
0.22751872 -0.88101348 -0.41478968
0.16815454 -0.87476289 -0.45443805
0.13086743 -0.86678836 -0.48119814
0.09685578 -0.85246464 -0.51373436
0.07014483 -0.84105926 -0.53637582
0.041546387 -0.82305668 -0.56643763
0.024714266 -0.81646479 -0.57686606
0.013207058 -0.80518161 -0.59288122
0.0047818849 -0.79355917 -0.6084743
-0.0058289557 -0.78298492 -0.62201337
-0.010989799 -0.77537223 -0.63140885
0.63346703 -0.7678707 -0.095363014
0.6225418 -0.77646208 -0.09771563
0.61575726 -0.78081353 -0.10570351
0.59594883 -0.79422839 -0.11851687
0.57927826 -0.80407056 -0.13381787
0.56827624 -0.81032015 -0.14298031
0.56368408 -0.81200566 -0.15135082
0.55976854 -0.8123827 -0.16338158
0.54784539 -0.81853159 -0.17283362
0.52929429 -0.82604204 -0.19365462
0.51220127 -0.83170378 -0.21428645
0.48968415 -0.83979373 -0.23442682
0.47789646 -0.83991878 -0.25719917
0.45964301 -0.8419406 -0.28260277
0.44197975 -0.84150463 -0.31068288
0.41311095 -0.84618782 -0.33660884
0.37325847 -0.85296088 -0.36487785
0.32314267 -0.86074385 -0.39331774
0.25102722 -0.86699516 -0.43047036
0.1983542 -0.8643958 -0.4620341
0.14316637 -0.85517887 -0.49816914
0.10685919 -0.84574914 -0.52277099
0.075024903 -0.8299955 -0.5527013
0.050256154 -0.81917546 -0.57133692
0.030163456 -0.80449479 -0.59319331
0.015921522 -0.79756704 -0.60302017
0.0048923656 -0.78655844 -0.61749647
-0.0080360614 -0.77456749 -0.63244021
-0.019196386 -0.76753313 -0.64072178
-0.018202575 -0.75991868 -0.64976324
0.63314707 -0.76718747 -0.10270432
0.6227387 -0.77557007 -0.10338077
0.61111788 -0.78376097 -0.11069633
0.59187927 -0.7968967 -0.12097344
0.57404934 -0.8071181 -0.13794103
0.56278917 -0.81236862 -0.15272716
0.55646369 -0.81368963 -0.16809922
0.55286266 -0.8139594 -0.17836189
0.53713972 -0.82044102 -0.19585061
0.51809001 -0.82720858 -0.21750565
0.49548199 -0.83348897 -0.24452757
0.48107229 -0.83719845 -0.26013114
0.46041942 -0.83844684 -0.29158337
0.44419448 -0.83887166 -0.31461978
0.42469502 -0.83927157 -0.33949576
0.3922972 -0.84453827 -0.36449694
0.35014754 -0.84955221 -0.39453483
0.29382618 -0.85400057 -0.42935906
0.22960923 -0.85568771 -0.46376518
0.17414748 -0.84915822 -0.49860102
0.11592749 -0.83353444 -0.54016771
0.080797521 -0.81992984 -0.56673346
0.054617114 -0.80977089 -0.58419866
0.033528157 -0.79810319 -0.6015872
0.018282426 -0.78525074 -0.61890794
0.0071134523 -0.78028781 -0.62538015
-0.0047015292 -0.77067439 -0.63721181
-0.016794051 -0.76138969 -0.64807692
-0.025638612 -0.7507252 -0.66011691
-0.025564674 -0.74283153 -0.66899011
0.63063822 -0.76853017 -0.10796675
0.62217038 -0.77510007 -0.11010857
0.60719164 -0.78630502 -0.11420475
0.58833223 -0.79789763 -0.13124235