# vtk DataFile Version 2.0
Grain example
ASCII
DATASET UNSTRUCTURED_GRID
POINTS 900 float
-19.928085 -7.3635794 4.3791616
-19.467572 -7.3397449 5.0615216
-18.982933 -7.3233584 5.7358671
-18.436523 -7.2840807 6.3720751
-17.995288 -7.2848652 6.9350561
-17.555405 -7.2717509 7.477836
-17.119307 -7.2391669 7.9449489
-16.667077 -7.1948886 8.3991996
-16.242573 -7.1475334 8.8020399
-15.818693 -7.1090956 9.2056579
-15.385149 -7.062965 9.6119406
-14.928709 -7.0371165 10.032369
-14.47398 -7.0612291 10.473969
-14.027408 -7.0869874 10.901144
-13.570017 -7.1587023 11.339668
-13.094758 -7.2279884 11.766892
-12.610425 -7.2823567 12.187902
-12.118177 -7.3365435 12.617074
-11.650089 -7.3685969 13.038539
-11.171893 -7.4128752 13.495299
-10.664807 -7.4326211 13.965929
-10.107121 -7.4529934 14.443405
-9.5455498 -7.4626607 14.930511
-8.9453579 -7.4633372 15.414734
-8.2527315 -7.468552 15.928956
-7.4955227 -7.4672517 16.416401
-6.6642062 -7.4633691 16.869836
-5.7867508 -7.4501516 17.328851
-4.9002423 -7.4982284 17.772511
-3.9172239 -7.6207316 18.190776
-19.787513 -6.5235951 4.4088314
-19.330661 -6.4957438 5.1042831
-18.818116 -6.4533252 5.7977529
-18.318416 -6.416052 6.4389716
-17.894569 -6.382558 6.9934747
-17.427813 -6.3567472 7.5566215
-17.018132 -6.3032572 8.0278817
-16.583956 -6.2644628 8.4806859
-16.166557 -6.234608 8.8999945
-15.745752 -6.1949021 9.30595
-15.32291 -6.1547839 9.7155105
-14.87807 -6.1691963 10.130658
-14.436299 -6.221752 10.557241
-13.995521 -6.3080947 10.996107
-13.544388 -6.4041266 11.442876
-13.079531 -6.4889278 11.89165
-12.608941 -6.5489911 12.314383
-12.114369 -6.6088826 12.741299
-11.632178 -6.6657003 13.169243
-11.141933 -6.723036 13.640667
-10.669532 -6.7677489 14.109231
-10.114262 -6.7847745 14.598207
-9.5477596 -6.800015 15.105069
-8.8741594 -6.8223976 15.644967
-8.1913694 -6.8204205 16.179547
-7.447705 -6.8066406 16.705632
-6.6501358 -6.7929959 17.205627
-5.7972642 -6.794655 17.694541
-4.8984926 -6.8786531 18.135106
-3.9027357 -7.0118305 18.559464
-19.64314 -5.6418071 4.423781
-19.170183 -5.6130844 5.1379274
-18.669261 -5.570457 5.84038
-18.203657 -5.5358072 6.476873
-17.733374 -5.4626457 7.066898
-17.284475 -5.4148737 7.6275367
-16.889176 -5.3817222 8.1157891
-16.492462 -5.3249813 8.5502006
-16.08312 -5.2976428 8.9706268
-15.672104 -5.2709953 9.389781
-15.275853 -5.2878909 9.8062106
-14.841968 -5.3599284 10.221353
-14.40439 -5.4434947 10.649609
-13.962224 -5.5304101 11.087421
-13.510183 -5.6222289 11.533348
-13.044551 -5.7311174 11.997911
-12.59788 -5.8110293 12.430708
-12.11749 -5.8702817 12.865972
-11.63149 -5.9369065 13.295193
-11.129625 -6.007321 13.7808
-10.640103 -6.0721245 14.258876
-10.102921 -6.109369 14.761862
-9.513431 -6.1397149 15.285226
-8.7999069 -6.164994 15.869694
-8.0906147 -6.1658097 16.417648
-7.363834 -6.1667482 16.962477
-6.59144 -6.1656532 17.482355
-5.7528216 -6.1668473 17.997865
-4.8849847 -6.2631006 18.473152
-3.898263 -6.4117294 18.920601
-19.464272 -4.7212839 4.4211595
-18.975873 -4.6801591 5.1437379
-18.516122 -4.657667 5.8579116
-18.049339 -4.6205747 6.5245908
-17.573581 -4.5467423 7.141539
-17.136547 -4.4736422 7.7001166
-16.739979 -4.4364265 8.1872541
-16.3847 -4.4113937 8.6235829
-16.00508 -4.3701315 9.0353529
-15.618524 -4.4176467 9.4499045
-15.230592 -4.4874142 9.8693282
-14.809903 -4.5698519 10.305412
-14.374187 -4.653276 10.732507
-13.929173 -4.7480357 11.178769
-13.476823 -4.8399835 11.62446
-13.011041 -4.9489324 12.088912
-12.557572 -5.0495762 12.537926
-12.098861 -5.1262672 12.976243
-11.630173 -5.1931129 13.42637
-11.13108 -5.2717243 13.913702
-10.623214 -5.3474008 14.402313
-10.09977 -5.4147388 14.92082
-9.4324119 -5.4613357 15.488433
-8.7134254 -5.4961647 16.076789
-7.9803649 -5.526374 16.659303
-7.248398 -5.5544734 17.211416
-6.5192461 -5.5759947 17.749896
-5.7044645 -5.6065596 18.274423
-4.8152565 -5.7341469 18.75501
-3.8461791 -5.870483 19.236481
-19.253914 -3.7720407 4.4140194
-18.81402 -3.7597067 5.1438857
-18.351954 -3.72649 5.8663044
-17.898463 -3.6605494 6.5630908
-17.414069 -3.589858 7.1942489
-16.994842 -3.5235954 7.746041
-16.605985 -3.4890388 8.2340323
-16.261886 -3.4973471 8.6749178
-15.933521 -3.5650679 9.1039627
-15.570669 -3.6136518 9.5108994
-15.180797 -3.6829667 9.934005
-14.770776 -3.760173 10.362575
-14.34143 -3.8561879 10.808004
-13.898086 -3.9575548 11.263572
-13.445522 -4.0575122 11.714562
-12.978053 -4.1671579 12.177732
-12.518595 -4.2714162 12.636522
-12.063514 -4.3599029 13.079988
-11.599726 -4.4422847 13.537708
-11.123014 -4.5206888 14.042951
-10.608967 -4.6099062 14.557759
-10.042056 -4.6984976 15.105715
-9.3592338 -4.8045381 15.690626
-8.6004496 -4.8818427 16.293787
-7.8734036 -4.9377224 16.879206
-7.1314033 -4.9862132 17.471005
-6.4129924 -5.0103951 18.007487
-5.63466 -5.067632 18.540301
-4.7509962 -5.205442 19.030713
-3.7803543 -5.3495175 19.500838
-19.068057 -2.8339697 4.3950169
-18.630674 -2.8114231 5.1264863
-18.174755 -2.7681521 5.8845036
-17.725508 -2.6933669 6.5946708
-17.258561 -2.6259038 7.2342322
-16.842904 -2.5560875 7.7782729
-16.496592 -2.5748891 8.2541712
-16.170357 -2.657576 8.6957535
-15.841896 -2.7445153 9.1409526
-15.508799 -2.825445 9.5771699
-15.133822 -2.874022 9.9955147
-14.726891 -2.9545411 10.426585
-14.302168 -3.0426041 10.862335
-13.865162 -3.1538663 11.328329
-13.421079 -3.2661694 11.79668
-12.945087 -3.3798482 12.27028
-12.487394 -3.4931797 12.728141
-12.020489 -3.6120821 13.190753
-11.565989 -3.7136674 13.655889
-11.083532 -3.8157168 14.164375
-10.562514 -3.9280224 14.723926
-9.9371305 -4.0512452 15.317451
-9.2570012 -4.1607624 15.904561
-8.5104021 -4.258483 16.507429
-7.7630855 -4.3400285 17.101411
-7.020914 -4.3977651 17.693383
-6.2991277 -4.4420957 18.2643
-5.5218264 -4.5276874 18.793658
-4.6770963 -4.6761274 19.29894
-3.7308163 -4.8568739 19.747551
-18.829103 -1.8623312 4.3546261
-18.410335 -1.8314686 5.1313912
-17.974782 -1.7708292 5.8941899
-17.557653 -1.7197044 6.6195862
-17.095872 -1.6703305 7.2845298
-16.726225 -1.6974914 7.8050161
-16.402892 -1.7395609 8.2682788
-16.080399 -1.8115271 8.7123992
-15.754163 -1.8942138 9.1539808
-15.428255 -1.9869819 9.6013468
-15.077009 -2.0645491 10.0494
-14.686149 -2.1363541 10.482216
-14.261541 -2.228958 10.918205
-13.8243 -2.3534533 11.387056
-13.378752 -2.4828331 11.862635
-12.911217 -2.6387885 12.363665
-12.44637 -2.7696639 12.832167
-11.974923 -2.8962486 13.305487
-11.515613 -3.0133938 13.787232
-11.033029 -3.1441644 14.310864
-10.451064 -3.2612611 14.907884
-9.7937846 -3.3827215 15.519556
-9.1335846 -3.5029921 16.119836
-8.4223471 -3.6119883 16.719246
-7.671332 -3.7029827 17.315877
-6.9129772 -3.7990877 17.917396
-6.183114 -3.8671849 18.493249
-5.4045479 -4.0116847 19.028781
-4.5518442 -4.1842727 19.518308
-3.709634 -4.406348 19.96563
-18.55499 -0.90894259 4.3292219
-18.134807 -0.83924371 5.1243903
-17.757682 -0.77619844 5.8803271
-17.370515 -0.7769372 6.6306178
-16.970751 -0.8308514 7.326165
-16.619887 -0.87383568 7.830524
-16.305846 -0.91478844 8.2801492
-15.988911 -0.96840432 8.7279587
-15.665974 -1.0578633 9.1671205
-15.337854 -1.1584257 9.6130348
-15.003345 -1.2670408 10.069866
-14.631575 -1.3680848 10.52621
-14.215344 -1.4720358 10.974252
-13.775596 -1.6054883 11.446658
-13.331856 -1.7495527 11.92672
-12.862377 -1.9001562 12.432566
-12.40629 -2.0498305 12.920158
-11.931121 -2.194195 13.418959
-11.458033 -2.3498973 13.926243
-10.934568 -2.4800755 14.490666
-10.303847 -2.5971544 15.095448
-9.6399251 -2.7283385 15.711402
-8.9832755 -2.8563198 16.314683
-8.316269 -2.9854424 16.922984
-7.5858697 -3.0912915 17.515266
-6.8262885 -3.1924908 18.116006
-6.0802234 -3.3093918 18.69654
-5.2936588 -3.5030696 19.227521
-4.4186775 -3.7027769 19.721506
-3.6323159 -3.9560472 20.140304
-18.239747 -0.086670772 4.3595111
-17.862354 0.013601106 5.1451819
-17.516313 0.059952503 5.8841399
-17.180183 0.02416277 6.6230987
-16.838645 -0.029086687 7.3428661
-16.509658 -0.07722939 7.8435293
-16.2047 -0.13174359 8.2954332
-15.892018 -0.19507409 8.7468534
-15.566164 -0.29011264 9.1943386
-15.237705 -0.3931094 9.64007
-14.905929 -0.50184906 10.093823
-14.568007 -0.61520803 10.553368
-14.161454 -0.72475524 11.016874
-13.732386 -0.84879894 11.489432
-13.287838 -0.98964867 11.97396
-12.81642 -1.1558575 12.484021
-12.355634 -1.3324359 12.989009
-11.880752 -1.5145327 13.522575
-11.378746 -1.6719962 14.068773
-10.783545 -1.814619 14.677841
-10.151152 -1.9579333 15.280904
-9.4840552 -2.0904281 15.894445
-8.8291064 -2.222295 16.49917
-8.1630925 -2.3595569 17.111108
-7.4946963 -2.4807042 17.715472
-6.7302287 -2.5768256 18.322656
-5.9747802 -2.7276313 18.886669
-5.1509708 -2.9612749 19.421353
-4.3160793 -3.2395463 19.896988
-3.5359212 -3.5065255 20.310645
-17.853271 0.62969795 4.4109811
-17.558879 0.69923318 5.1683243
-17.284966 0.7190246 5.9015856
-16.966576 0.69930751 6.6329441
-16.641926 0.65604483 7.3446558
-16.361267 0.59738835 7.8518619
-16.077403 0.54928475 8.3198643
-15.771299 0.50357928 8.7757869
-15.459763 0.44749759 9.2226561
-15.135058 0.35970782 9.6655907
-14.804997 0.25959794 10.115186
-14.471504 0.152028 10.575366
-14.102422 0.023111677 11.047706
-13.681513 -0.096938345 11.529039
-13.242746 -0.23967736 12.019401
-12.770284 -0.4270628 12.53845
-12.304777 -0.61549308 13.046675
-11.803295 -0.80056011 13.592979
-11.263855 -0.98977746 14.205388
-10.627186 -1.1667953 14.864074
-9.9814896 -1.319035 15.471436
-9.329489 -1.456567 16.07863
-8.6644737 -1.5871619 16.688521
-7.9907817 -1.7159111 17.30463
-7.3263801 -1.8435444 17.907104
-6.6068873 -1.9594849 18.523743
-5.860871 -2.1552047 19.065363
-5.0518331 -2.4257191 19.586714
-4.250395 -2.7556846 20.027579
-3.4473761 -3.056271 20.476637
-17.487026 1.2253231 4.4509276
-17.249193 1.2861714 5.2003343
-16.977006 1.3089704 5.9348334
-16.69344 1.3088274 6.6664874
-16.407074 1.2877584 7.3551033
-16.160988 1.2534176 7.8466666
-15.909253 1.2021978 8.324031
-15.637977 1.1478193 8.801977
-15.333461 1.1027689 9.2591049
-15.0158 1.0349843 9.7016262
-14.688474 0.95080706 10.147611
-14.360109 0.86463968 10.600653
[...]
POINT_DATA 900
VECTORS normals float
-0.82721948 0.1203669 0.54883489
-0.81104526 0.10199067 0.57602387
-0.79255292 0.079373907 0.6046153
-0.77143279 0.058732788 0.63359444
-0.75615952 0.035691429 0.65341327
-0.7422959 0.011608691 0.66997167
-0.73549543 5.0055643e-05 0.67752968
-0.72413297 -0.0058005132 0.68963598
-0.70888222 -0.015812033 0.70514961
-0.69838565 -0.027701472 0.71518537
-0.69380585 -0.036571849 0.71923289
-0.68940264 -0.046395292 0.72289106
-0.68911123 -0.057607973 0.72236212
-0.68831423 -0.066884973 0.72232259
-0.68505717 -0.076281648 0.72448449
-0.68056249 -0.088973107 0.72726782
-0.67747321 -0.095310941 0.7293462
-0.67697231 -0.10302789 0.72876179
-0.67688002 -0.10856263 0.72804367
-0.66958246 -0.12826365 0.73157895
-0.66005725 -0.15041024 0.73600353
-0.64174366 -0.17666057 0.74629492
-0.6182492 -0.20660804 0.75834098
-0.58745957 -0.24021981 0.77277791
-0.55265292 -0.28324349 0.78380346
-0.51615758 -0.32324757 0.79315343
-0.48242963 -0.36446655 0.7965085
-0.43865434 -0.41714663 0.79597177
-0.37500662 -0.46902442 0.79961624
-0.28381711 -0.53314133 0.79699948
-0.83231721 0.13273226 0.53817303
-0.81555006 0.11955093 0.56620285
-0.8002266 0.09661135 0.59186454
-0.77916548 0.071562428 0.62271981
-0.76698475 0.0513869 0.63960439
-0.75213109 0.032207415 0.65822603
-0.73890944 0.020744527 0.67348535
-0.72606145 0.0087996102 0.68757351
-0.71669551 -0.0027403269 0.69738085
-0.70618351 -0.012024604 0.70792674
-0.70160696 -0.023624162 0.71217243
-0.69775611 -0.034583142 0.71550012
-0.69707629 -0.045786703 0.71553352
-0.69687805 -0.053622302 0.71518224
-0.69182567 -0.064305331 0.71919543
-0.68714879 -0.075196068 0.72261476
-0.68405544 -0.084405662 0.72453008
-0.68390704 -0.097752005 0.72299081
-0.68573561 -0.10660101 0.72000201
-0.68105777 -0.11832188 0.72260656
-0.66951927 -0.13866878 0.7297362
-0.654046 -0.15968365 0.73940852
-0.63286305 -0.18330809 0.75225162
-0.59990228 -0.21325866 0.77112775
-0.57248153 -0.24573646 0.78222662
-0.54295063 -0.28347378 0.79047278
-0.50926848 -0.32369578 0.79741248
-0.4738768 -0.3695833 0.79928028
-0.40251652 -0.43393432 0.8060282
-0.32171744 -0.49286676 0.8084431
-0.83593241 0.15082539 0.52770135
-0.82215859 0.13742604 0.55242134
-0.80746493 0.11606982 0.57838411
-0.79046079 0.089155761 0.60598926
-0.77328243 0.069885851 0.63019859
-0.758095 0.050263706 0.65020422
-0.74602947 0.033486795 0.66507043
-0.73743417 0.022933234 0.67502956
-0.72792269 0.0071633298 0.68562179
-0.71910662 -0.006311841 0.69487109
-0.7128128 -0.01739579 0.70113858
-0.70732226 -0.029534881 0.70627396
-0.70290316 -0.04200366 0.71004426
-0.70068637 -0.049191202 0.71177162
-0.6975868 -0.0561627 0.71429575
-0.69351266 -0.064277724 0.7175713
-0.69118577 -0.075127591 0.71876148
-0.69017696 -0.090346989 0.71797854
-0.69334773 -0.10255742 0.71326776
-0.68987513 -0.1170591 0.71440148
-0.679154 -0.13377998 0.7217013
-0.66230347 -0.14849528 0.7343727
-0.64071193 -0.1678085 0.74921861
-0.6123726 -0.1918737 0.76693173
-0.58748745 -0.22083347 0.77851852
-0.56533782 -0.24879663 0.78644351
-0.5437152 -0.2880774 0.7882799
-0.50310636 -0.3329448 0.79751599
-0.43037171 -0.39510212 0.81158764
-0.35803386 -0.4424169 0.82224026
-0.83977114 0.16735772 0.51650346
-0.82901798 0.15620837 0.53696195
-0.82077167 0.13774856 0.55439986
-0.80185151 0.11038184 0.5872393
-0.78402939 0.087795728 0.61448338
-0.76939949 0.065231592 0.63542841
-0.75631596 0.047666795 0.65246765
-0.74852587 0.035289827 0.66216588
-0.74509369 0.022773567 0.66657089
-0.73333401 0.0029265363 0.67986224
-0.72539327 -0.0094792519 0.68826939
-0.71734447 -0.022671647 0.6963497
-0.70868224 -0.035092825 0.70465451
-0.70627714 -0.043037233 0.70662607
-0.70408 -0.049621863 0.7083848
-0.70080217 -0.060305005 0.7108021
-0.70240815 -0.072389236 0.70808374
-0.70304198 -0.084911104 0.70606095
-0.70328744 -0.098947649 0.7039859
-0.69737125 -0.11274193 0.70778711
-0.68709876 -0.12556048 0.71563249
-0.66918567 -0.13639196 0.73047092
-0.64629444 -0.15152772 0.74789227
-0.62330126 -0.17093317 0.76307102
-0.60411775 -0.19578933 0.77246895
-0.58630754 -0.22798437 0.77734587
-0.56416237 -0.25608444 0.78494686
-0.5246485 -0.29711331 0.79778922
-0.45426301 -0.35239961 0.81820513
-0.37798058 -0.41408244 0.82804977
-0.84493905 0.18345751 0.50241551
-0.83989588 0.16931817 0.515661
-0.83106953 0.14928164 0.53575968
-0.81590155 0.1244558 0.56463742
-0.79958182 0.10057646 0.59207541
-0.78304425 0.076146097 0.61728719
-0.771562 0.059161293 0.6333972
-0.76464221 0.048363034 0.64263777
-0.75713642 0.033352007 0.65240485
-0.74871359 0.01618666 0.66269598
-0.73465373 -0.0013300263 0.67844096
-0.72675317 -0.013658408 0.68676289
-0.71574302 -0.026812996 0.69784883
-0.71392267 -0.036956418 0.69924862
-0.71234884 -0.045198264 0.70036865
-0.70989876 -0.052947541 0.70231069
-0.71058891 -0.065689554 0.70053429
-0.71585597 -0.075695916 0.69413282
-0.71264618 -0.087966072 0.69598663
-0.70648657 -0.10279757 0.70022096
-0.69340377 -0.11332601 0.71158164
-0.67497638 -0.12248062 0.72760249
-0.65188272 -0.1382841 0.74560474
-0.63183719 -0.15592741 0.75925516
-0.61251354 -0.18436372 0.76865934
-0.60144976 -0.20284832 0.77272942
-0.57752269 -0.2375117 0.78106065
-0.53697893 -0.26898463 0.79956294
-0.47959107 -0.31230029 0.82003715
-0.39640674 -0.37274528 0.83900099
-0.85522454 0.21397289 0.47202394
-0.85115442 0.18646917 0.49067852
-0.84300271 0.16322834 0.51254555
-0.82836486 0.13999786 0.54241337
-0.81226245 0.11069813 0.57269158
-0.79779966 0.090876026 0.5960346
-0.78758387 0.076613733 0.61142619
-0.78060155 0.059666233 0.62217454
-0.7738359 0.046332853 0.63168922
-0.76507731 0.029873254 0.64324513
-0.75074197 0.01315058 0.66046465
-0.73813617 -0.0044092572 0.67463735
-0.72464441 -0.018640069 0.68887084
-0.72010055 -0.026313079 0.69337062
-0.71810685 -0.03513036 0.69504562
-0.72036501 -0.045131799 0.69212526
-0.72333705 -0.055815066 0.68823556
-0.72686708 -0.063875305 0.68380128
-0.72335299 -0.076254039 0.68625489
-0.71391009 -0.087170101 0.69479044
-0.69879541 -0.097448647 0.70865276
-0.67638347 -0.11000595 0.72828847
-0.65864242 -0.12320932 0.74230022
-0.64236292 -0.13966973 0.75356635
-0.62387168 -0.16605625 0.76368151
-0.60977384 -0.1825356 0.77126949
-0.58901243 -0.20713087 0.78112813
-0.55229149 -0.23067773 0.80110043
-0.491856 -0.28174433 0.82383118
-0.41928389 -0.33292757 0.84460657
-0.86635281 0.25399426 0.43002293
-0.8619758 0.22131108 0.45609113
-0.8540403 0.19616524 0.48180324
-0.83896683 0.16375517 0.51895944
-0.8250954 0.12572722 0.55082688
-0.81151343 0.10321934 0.57514496
-0.80089688 0.085564241 0.59265753
-0.7975421 0.073180884 0.59880812
-0.78722236 0.057895724 0.61394547
-0.77880458 0.04137974 0.62590026
-0.76523432 0.024165364 0.64329812
-0.74749087 0.0077164991 0.66422726
-0.73545086 -0.0075455504 0.67753605
-0.72577031 -0.015958742 0.68775197
-0.72352611 -0.023102524 0.68991031
-0.72597616 -0.035023531 0.68682746
-0.72969049 -0.043343559 0.68240247
-0.73347289 -0.04996266 0.67787997
-0.72875447 -0.059563902 0.68217964
-0.71819535 -0.069630895 0.69234888
-0.69903743 -0.081755209 0.7103962
-0.68023871 -0.093778756 0.72696687
-0.66314024 -0.10712726 0.74078929
-0.6487082 -0.12232996 0.75114116
-0.63359449 -0.14690032 0.75959089
-0.6162707 -0.1664591 0.76974138
-0.59521661 -0.17935094 0.7832946
-0.56055574 -0.2068895 0.80185659
-0.50074335 -0.25440488 0.82736585
-0.42677901 -0.30701575 0.8506474
-0.87176647 0.32115954 0.36997267
-0.86858669 0.27719354 0.41075651
-0.86282497 0.24504395 0.4421386
-0.8554265 0.20327351 0.47636686
-0.83904581 0.14911139 0.52322836
-0.82335056 0.12060136 0.55457116
-0.81288077 0.099401364 0.57388521
-0.80692405 0.084341491 0.58460251
-0.79882249 0.071502173 0.59730233
-0.7881063 0.060260293 0.61258236
-0.77718399 0.04349717 0.6277683
-0.75733387 0.026990671 0.65246985
-0.74189116 0.0089582771 0.67046048
-0.73215311 -0.0019904091 0.68113718
-0.72698726 -0.0076937635 0.68660784
-0.73143839 -0.01564136 0.68172813
-0.73488484 -0.02570734 0.67770451
-0.73651191 -0.031852893 0.67567418
-0.73182416 -0.041305728 0.68024057
-0.71863051 -0.055816936 0.69314837
-0.70163645 -0.059869238 0.71001547
-0.68333729 -0.075733433 0.7261643
-0.66750782 -0.088653131 0.73930639
-0.653533 -0.10846735 0.74908574
-0.6413742 -0.12445655 0.75706651
-0.61954507 -0.14444387 0.77155679
-0.60219939 -0.15506993 0.78314061
-0.56434732 -0.18920863 0.80356219
-0.51479294 -0.22476752 0.82732569
-0.44067701 -0.28315065 0.85183888
-0.86724149 0.38536087 0.31526052
-0.86726033 0.34431572 0.35959172
-0.86334997 0.31591335 0.39347882
-0.85993301 0.27602494 0.4293314
-0.84831192 0.20419748 0.48853892
-0.83837908 0.17148759 0.51740944
-0.82780622 0.13304478 0.54501005
-0.81620954 0.1085863 0.56746014
-0.80913587 0.086785303 0.58117765
-0.79684346 0.072715158 0.59979413
-0.78209022 0.057647673 0.62049306
-0.7656231 0.043972486 0.64178476
-0.74742218 0.027865505 0.66376471
-0.7343224 0.016147703 0.67860877
-0.73039281 0.0079579638 0.68298098
-0.73396755 0.00036747779 0.67918444
-0.73703009 -0.0044729563 0.67584513
-0.73829676 -0.0088569315 0.67441786
-0.73190754 -0.015119029 0.68123621
-0.71522657 -0.023558735 0.69849549
-0.70040384 -0.035208617 0.71287784
-0.68647759 -0.049729812 0.72544845
-0.6721376 -0.068548703 0.73724631
-0.65937266 -0.087498404 0.74670726
-0.64594073 -0.10507636 0.75612138
-0.62679567 -0.12020982 0.76985504
-0.60483451 -0.13667677 0.78453468
-0.57393348 -0.16262027 0.80259268
-0.52029687 -0.20374239 0.82932515
-0.44592668 -0.25876649 0.85684847
-0.85682011 0.43874086 0.27086114
-0.85753487 0.40829772 0.31293278
-0.85837922 0.3759449 0.34907099
-0.85565748 0.34277233 0.38775947
-0.84985799 0.27454456 0.44985184
-0.84467246 0.23795885 0.47948307
-0.83443937 0.1967135 0.51479582
-0.82728054 0.16781799 0.53613808
-0.82142783 0.12413603 0.55663863
-0.80526865 0.10150989 0.58415592
-0.78988992 0.080597023 0.60792929
-0.76941677 0.058003936 0.63610799
-0.75521103 0.042152712 0.65412495
-0.74250348 0.030599635 0.66914291
-0.73503176 0.019800425 0.6777435
-0.73717059 0.013276137 0.67557625
-0.739136 0.012642156 0.67343756
-0.73487376 0.01227677 0.67809279
-0.72885009 0.0076387208 0.6846307
-0.71444815 0.0011482581 0.69968745
-0.7017126 -0.012195481 0.71235574
-0.68710113 -0.031808384 0.72586518
-0.67664199 -0.044190384 0.73498491
-0.66338105 -0.064654408 0.74548333
-0.64773033 -0.081458361 0.75750245
-0.63050717 -0.10148528 0.76952027
-0.60944633 -0.11824433 0.78396011
-0.57833079 -0.14039554 0.80363088
-0.53111338 -0.17834072 0.82831948
-0.45645729 -0.22532591 0.86074095
-0.85041143 0.46380114 0.24837251
-0.85034659 0.44305149 0.28392966
-0.84745688 0.42247587 0.32145136
-0.84607795 0.3861717 0.36745546
-0.84662759 0.33351979 0.41471228
-0.84442144 0.30204976 0.4424007
-0.84018359 0.26272947 0.4744099
-0.83550573 0.24001434 0.49429069
-0.82718852 0.19454383 0.52717345
-0.81221802 0.15150216 0.56333736
-0.79544822 0.13139472 0.59160591
-0.77171802 0.094616125 0.62888719
-0.75608937 0.074470809 0.65021762
-0.748866 0.055860928 0.66036298
-0.74011121 0.03904844 0.67134985
-0.73476502 0.034186153 0.67745972
-0.73453536 0.032561198 0.67778874
-0.73403844 0.029617443 0.67846177
-0.72383189 0.028273186 0.68939685
-0.71405121 0.024088347 0.69967895
-0.70307121 0.0092257534 0.71105961
-0.69005864 -0.0088476116 0.72369938
-0.67787406 -0.02668497 0.73469359
-0.66723103 -0.040314214 0.74375905
-0.64964428 -0.055790184 0.75818847
-0.63420993 -0.077191925 0.76929784
-0.61189395 -0.099923722 0.78460247
-0.58498242 -0.12088665 0.80198627
-0.5381678 -0.15798647 0.82789836
-0.45894606 -0.19825456 0.86606215
-0.84562632 0.48126802 0.23086191
-0.84292993 0.46601596 0.26888335
-0.84105754 0.44498924 0.30758217
-0.84481934 0.41300879 0.34015295
-0.84208803 0.38490601 0.37780302
-0.83869777 0.36212257 0.4067595
-0.83143214 0.33282887 0.44491072
-0.8332821 0.30083522 0.46383091
-0.82988054 0.26847606 0.48910008
-0.81639719 0.22721435 0.53091361
-0.80113907 0.19182768 0.56690241
-0.77988261 0.15575628 0.60623683
-0.76100423 0.12373277 0.63683809
-0.74933987 0.10184419 0.6543069
-0.73836931 0.078121255 0.66985658
-0.73172929 0.068377056 0.67815694
-0.72906567 0.060280482 0.68178407
-0.72698412 0.059300916 0.6840888
-0.72035222 0.053374471 0.69155177
-0.71219108 0.043444761 0.70064
-0.70532805 0.031495073 0.70818105
-0.69463494 0.011705956 0.71926718
-0.68204852 -0.0010637058 0.73130615
-0.66758084 -0.020411648 0.74425748
-0.65410199 -0.035365548 0.75557916
-0.63537588 -0.053204273 0.77036796
-0.61655955 -0.077486111 0.78348594
-0.58808688 -0.10225949 0.80230719
-0.54371117 -0.13028187 0.82909879
-0.45800694 -0.16141505 0.87417094
-0.84111933 0.49318703 0.22200186
-0.83803036 0.48145461 0.25672274
-0.83529932 0.46451177 0.29411539
-0.8393088 0.43964354 0.31980353
-0.83821766 0.41914844 0.34886349
-0.83778399 0.39910115 0.37260739
-0.83252955 0.37903248 0.40401599
-0.83014103 0.35902186 0.42657845
-0.82883758 0.34164831 0.44306287
-0.81741579 0.30607789 0.48800384
-0.79615195 0.26319106 0.54486011
-0.78126793 0.23630206 0.57773848
-0.76137803 0.19910867 0.61697588
-0.75168194 0.15839218 0.64022353
-0.73681365 0.12878422 0.66371701
-0.72955867 0.11029045 0.67496678
-0.72583418 0.098573259 0.68077019
-0.72165588 0.085464456 0.68695605
-0.71669754 0.078724346 0.69292649
-0.71158707 0.072923554 0.69880326
-0.70596503 0.053441865 0.70622755
-0.6960321 0.038042712 0.71700214
-0.68344939 0.020680793 0.7297049
-0.67216738 0.0046690899 0.7403845
-0.6566533 -0.0126233 0.75408693
-0.63588295 -0.030132374 0.77119707
-0.61788421 -0.056203501 0.78425778
-0.58844793 -0.082578632 0.80430703
-0.54317657 -0.10813158 0.83262643
-0.45142173 -0.13516738 0.88201372
-0.83606664 0.51037009 0.20128324
-0.8329086 0.49823393 0.24088632
-0.83402169 0.47926701 0.27333305
-0.83410188 0.4625893 0.30047495
-0.83201383 0.44165851 0.33569443
-0.82781843 0.42808027 0.36257955
-0.82694741 0.41108313 0.38362565
-0.8212027 0.39791407 0.40901163
-0.81861926 0.38311353 0.42788612
-0.81217161 0.36098851 0.45832801
-0.80009324 0.32903884 0.50158175
-0.77976909 0.29506471 0.55217477
-0.76419903 0.26313125 0.58886482
-0.74887957 0.22354802 0.6238635
-0.73653253 0.18323004 0.6511118
-0.72836569 0.15753669 0.66683252
-0.72318392 0.13664003 0.67700408
-0.72040173 0.12050286 0.68300835
-0.71712509 0.10728043 0.68863816
-0.71278824 0.095042046 0.69491002
-0.70528208 0.078744652 0.7045399
-0.69797489 0.064355106 0.7132247
-0.68674724 0.051488372 0.72507047
-0.67086783 0.035383761 0.74073231
-0.65495594 0.01531119 0.75551193
-0.63308124 -0.0028796919 0.77408
-0.61458538 -0.027067799 0.78838579
-0.58403691 -0.049373989 0.8102241
-0.53499247 -0.077559418 0.84128925
-0.43924927 -0.10193492 0.89256336
-0.8248549 0.53468441 0.18364906
-0.82498634 0.51851246 0.2248163
-0.8272481 0.50066026 0.25495076
-0.8276538 0.48433365 0.28356675
-0.82535077 0.47125196 0.3109947
-0.82254247 0.4563385 0.3393804
-0.818616 0.44061839 0.36840642
-0.81269713 0.43190141 0.39113239
-0.81183191 0.41424254 0.41149978
-0.80570994 0.39936837 0.43742017
-0.79535765 0.37327209 0.47757111
-0.78035915 0.34887982 0.51896287
-0.76289246 0.30873907 0.56804514
-0.74742021 0.26913072 0.60739746
-0.73661437 0.24163808 0.63167263
-0.72902697 0.20981112 0.65153586
-0.72126419 0.18189282 0.66835094
-0.72044405 0.15550419 0.67585414
-0.71507407 0.13623331 0.68564536
-0.71301195 0.1136265 0.69188364
-0.70698387 0.094788297 0.70084876
-0.69576728 0.088811493 0.71275551
-0.68484569 0.075455892 0.72477086
-0.67174606 0.068137406 0.73764119
-0.65236206 0.04421045 0.75661693
-0.63317015 0.029046247 0.77346744
-0.60300152 0.0047025886 0.79772617
-0.57951005 -0.022433288 0.81465628
-0.52417142 -0.04452459 0.85044805
-0.42964493 -0.064699493 0.90067708
-0.81295665 0.55678511 0.1705633
-0.81301058 0.54429432 0.20677882
-0.81397842 0.53302348 0.2309223
-0.81574404 0.51253046 0.26809362
-0.8153153 0.50166839 0.28911898
-0.81135207 0.48905444 0.32020864
-0.81228567 0.4684539 0.34748084
-0.80410989 0.46415382 0.37144114
-0.80220815 0.44979093 0.39261966
-0.79796557 0.43895108 0.41300473
-0.79204965 0.41460097 0.44806629
-0.77786673 0.38739648 0.49482049
-0.76182661 0.36048437 0.53821114
-0.74610036 0.31497649 0.58662089
-0.73279489 0.28223021 0.61915891
-0.72571804 0.25232178 0.64005237
-0.72114238 0.23131577 0.65302885
-0.71893368 0.19455306 0.66729564
-0.71369265 0.16280099 0.68127721
-0.7131888 0.1469006 0.68540641
-0.70355592 0.12792091 0.6990317
-0.6931946 0.11409651 0.7116623
-0.68098813 0.10407166 0.72486154
-0.65909324 0.1000076 0.74538217
-0.64632911 0.079575504 0.75889816
-0.62532263 0.059601767 0.77808691
-0.6050036 0.038621274 0.79528551
-0.57149351 0.0097923982 0.82054816
-0.52170331 -0.016903316 0.85295951
-0.43356139 -0.04619159 0.89993936
-0.79669275 0.58317411 0.15870921
-0.79640412 0.576824 0.18169909
-0.79843195 0.56179877 0.21653768
-0.8006119 0.54762221 0.24316765
-0.79989094 0.53644146 0.26908185
-0.79977619 0.52070991 0.29869589
-0.79872622 0.50583279 0.32583678
-0.7935606 0.49360123 0.3558362
-0.79083554 0.48325165 0.37556223
-0.78834299 0.475593 0.39029045
-0.78075448 0.45687298 0.42625055
-0.76930322 0.43283622 0.4699206
-0.75729966 0.40682182 0.51087497
-0.7448427 0.36874569 0.5560899
-0.7305843 0.33442748 0.59531911
-0.72373799 0.3016774 0.62064004
-0.7164798 0.28399275 0.63718507
-0.71378988 0.25207545 0.65342328
-0.71618232 0.20641673 0.6666896
-0.70886434 0.18899017 0.67955432
-0.69393537 0.17521046 0.69839459
-0.68105989 0.15821149 0.71493115
-0.66500955 0.15418845 0.73074498
-0.65165272 0.13986859 0.74551023
-0.63017391 0.11636106 0.76768545
-0.60912488 0.098270131 0.78696243
-0.59078116 0.070783618 0.80372091
-0.56340663 0.043658321 0.8250254
-0.51184722 0.019572506 0.8588535
-0.44077819 -0.017873985 0.89743808
-0.78467982 0.60052133 0.15379114
-0.782737 0.59789112 0.17276861
-0.78344594 0.58997728 0.19529276
-0.7824507 0.58096349 0.22417031
-0.78219991 0.57189283 0.24718798
-0.7811818 0.55960957 0.27675281
-0.77684694 0.55388655 0.29953051
-0.77305643 0.54660787 0.32187512
-0.77571152 0.52816276 0.34542109
-0.77356997 0.51600923 0.36786408
-0.76822086 0.49920863 0.40078356
-0.764869 0.4709475 0.43952687
-0.74834313 0.44890262 0.48833287
-0.73612162 0.41588581 0.53400745
-0.72325265 0.38530479 0.57310193
-0.71838253 0.34858517 0.60200907
-0.71002189 0.32828945 0.62297267
-0.7087915 0.29032618 0.64290382
-0.70618041 0.27246537 0.65350734
-0.69797599 0.24569559 0.67265385
-0.68111591 0.22920305 0.6953755
-0.67068824 0.21262592 0.71061065
-0.65233538 0.1966088 0.73198602
-0.62860469 0.18960817 0.75425783
-0.61920222 0.16098754 0.76855164
-0.59400259 0.13468409 0.79310851
-0.58309018 0.1035782 0.80577751
-0.55913043 0.084541916 0.82475804
-0.51163143 0.047944268 0.85786632
-0.44179033 0.012784141 0.89702724
-0.77587773 0.61360721 0.14662859
-0.77341983 0.6133431 0.16009999
-0.77055084 0.61038964 0.18350989
-0.77225634 0.60136654 0.20488641
-0.76520939 0.59993879 0.23351238
-0.7651039 0.58936711 0.25935002
-0.76385686 0.58122076 0.28054435
-0.75751439 0.57957113 0.30044841
-0.75809642 0.56940754 0.31790702
-0.75719722 0.55705482 0.34108986
-0.75441065 0.54230289 0.36982719
-0.74838002 0.51734409 0.41506919
-0.73401402 0.49452282 0.46547889
-0.72642664 0.46085893 0.50981701
-0.71278267 0.4367317 0.54882264
-0.70505905 0.40722805 0.58056614
-0.69831811 0.37683215 0.60856334
-0.70020033 0.34673478 0.62409494
-0.68746737 0.34072465 0.64132311
-0.67625417 0.31792657 0.66453216
-0.66665705 0.287241 0.68779428
-0.64436442 0.27019123 0.71539583
-0.63644897 0.24253269 0.73219574
-0.61392924 0.22342731 0.75708066
-0.59974392 0.19746977 0.77544369
-0.57354055 0.18217123 0.79866444
-0.55928305 0.14894316 0.81548661
-0.54825617 0.12106414 0.82750145
-0.50531761 0.09385261 0.85781455
-0.44702642 0.047122105 0.89327873
-0.76832999 0.62379557 0.14334614
-0.76665252 0.62175193 0.16021376
-0.76355808 0.62064672 0.1782602
-0.75912499 0.61868421 0.20238351
-0.75740285 0.61430296 0.22129799
-0.76091858 0.6023068 0.24130777
-0.75275669 0.60095488 0.2687203
-0.74989942 0.59712009 0.2847779