# vtk DataFile Version 2.0
Grain example
ASCII
DATASET UNSTRUCTURED_GRID
POINTS 900 float
19.847042 -1.8310606 -0.026793997
19.670204 -1.8857647 0.69309864
19.463218 -1.9268394 1.4539504
19.259573 -1.9734683 2.2063429
19.052167 -2.0254381 2.9720616
18.761821 -2.0825384 3.7727661
18.452094 -2.1275998 4.5702623
18.102275 -2.1385819 5.3252178
17.785685 -2.0956629 6.0033496
17.469505 -2.050327 6.6417367
17.154386 -2.0108751 7.2697526
16.812887 -1.9901795 7.8950119
16.410412 -1.9703266 8.5058325
15.998647 -1.9349426 9.1149097
15.572264 -1.8963815 9.741574
15.146055 -1.860472 10.361578
14.69861 -1.8128778 10.993115
14.183886 -1.7629907 11.607032
13.645747 -1.7044085 12.223849
13.118149 -1.6428684 12.828568
12.611821 -1.5781268 13.418663
12.106903 -1.4887708 13.990088
11.625734 -1.387632 14.520722
11.141604 -1.3084596 15.026871
10.704037 -1.3120478 15.471443
10.253195 -1.3094596 15.909093
9.8070731 -1.311543 16.337083
9.3645666 -1.3103615 16.758689
8.9062326 -1.3048095 17.19216
8.4614073 -1.3120574 17.607627
20.07893 -1.3965647 -0.05806425
19.898157 -1.4337236 0.69230411
19.68589 -1.4803569 1.4652076
19.484623 -1.5252729 2.2148848
19.269732 -1.5614517 2.9803728
18.972724 -1.6004143 3.7738864
18.656244 -1.6397496 4.5747039
18.288423 -1.649973 5.3670314
17.952786 -1.6307881 6.0372922
17.638819 -1.583419 6.6716473
17.319993 -1.5431324 7.291851
16.983523 -1.5115609 7.9184592
16.577461 -1.4780942 8.5417282
16.159213 -1.4315067 9.15167
15.733157 -1.3793229 9.7639754
15.302103 -1.3251856 10.378901
14.855504 -1.269376 11.015342
14.320555 -1.2009342 11.650541
13.763736 -1.1383926 12.276835
13.22273 -1.0571841 12.876107
12.67406 -0.96761928 13.468448
12.128778 -0.85994252 14.051093
11.629081 -0.73994046 14.58821
11.142654 -0.64954613 15.076754
10.680376 -0.60207298 15.528954
10.231626 -0.59918298 15.968355
9.7822517 -0.59566568 16.396768
9.3335243 -0.59610109 16.823628
8.8789985 -0.60749059 17.240383
8.4240603 -0.59857559 17.634844
20.305031 -0.9441052 -0.062765223
20.128488 -0.97996744 0.68879361
19.916658 -1.0360029 1.4625745
19.703394 -1.0807248 2.2275829
19.484499 -1.1100734 2.9962665
19.18854 -1.1447733 3.7765371
18.857021 -1.1644852 4.5858784
18.468821 -1.164849 5.4131499
18.134881 -1.1360406 6.0846144
17.814363 -1.113556 6.6997159
17.485331 -1.0741226 7.3252373
17.134713 -1.0162024 7.9384616
16.722954 -0.96936243 8.556193
16.310149 -0.92267303 9.1730481
15.891039 -0.87490467 9.7937803
15.459358 -0.8100229 10.402962
15.010232 -0.74237289 11.027362
14.464861 -0.64436834 11.659103
13.87228 -0.52903115 12.29633
13.302589 -0.40340482 12.896752
12.738626 -0.29176798 13.488873
12.181589 -0.18043665 14.075282
11.646477 -0.081864565 14.606782
11.13578 0.015727461 15.102218
10.657731 0.1182958 15.560118
10.197678 0.14109254 16.012058
9.7505679 0.15374846 16.4361
9.3040992 0.15811002 16.845496
8.8445393 0.18730814 17.236113
8.378499 0.22712384 17.605621
20.525516 -0.49656888 -0.058046194
20.356108 -0.52728949 0.6853667
20.145362 -0.57370362 1.4595449
19.922821 -0.62730435 2.2426726
19.693644 -0.65347006 3.0187081
19.404557 -0.68409399 3.7941435
19.056706 -0.68869245 4.593784
18.656864 -0.69810413 5.4366058
18.314961 -0.66860637 6.127075
17.992812 -0.63250281 6.7412207
17.652143 -0.57918399 7.3515212
17.271 -0.50749418 7.9567278
16.864255 -0.45245655 8.5689885
16.446952 -0.4030565 9.1865271
16.030382 -0.34744766 9.7997173
15.603111 -0.27383465 10.41679
15.150808 -0.19313316 11.040116
14.576492 -0.06419322 11.654983
13.971796 0.085879272 12.284726
13.3718 0.22586186 12.907402
12.790262 0.38221619 13.498467
12.239529 0.52232793 14.050427
11.693388 0.64228128 14.573765
11.155733 0.75001485 15.086403
10.650727 0.86272255 15.561508
10.165423 0.96323114 16.012809
9.7193012 0.96114851 16.440801
9.2570793 0.98996289 16.829188
8.7899688 1.0321527 17.199107
8.3282457 1.059652 17.554685
20.739287 -0.043279114 -0.050048724
20.578728 -0.065869212 0.67724015
20.369834 -0.11270105 1.4553241
20.147189 -0.15753807 2.2402064
19.908725 -0.18243441 3.0314894
19.614837 -0.19927772 3.8171806
19.257359 -0.2042378 4.6052269
18.855033 -0.21182442 5.4384652
18.498905 -0.18299086 6.1602366
18.165411 -0.12150462 6.7680542
17.812458 -0.052402237 7.3717489
17.423792 0.01250684 7.9582206
17.003954 0.083896272 8.560845
16.582266 0.16441694 9.1776308
16.163737 0.22920721 9.78867
15.734014 0.30788215 10.401078
15.241333 0.43268486 11.011054
14.664355 0.58421416 11.624767
14.048531 0.75428492 12.250973
13.453807 0.93294963 12.859803
12.859275 1.1028964 13.45884
12.2892 1.265213 13.996725
11.748843 1.4076708 14.51447
11.210534 1.5379901 15.01665
10.679248 1.6349272 15.506876
10.152464 1.7261506 15.986737
9.6669836 1.8173649 16.389738
9.2045171 1.8468612 16.767455
8.7400673 1.8697487 17.140235
8.2739818 1.8943819 17.501834
20.958896 0.42305918 -0.047083949
20.793775 0.39981004 0.67638142
20.595907 0.37020159 1.442007
20.36721 0.32984347 2.2354319
20.114072 0.30942088 3.0557691
19.824417 0.29387348 3.8426511
19.457501 0.28583742 4.628676
19.049981 0.29266096 5.4374861
18.66557 0.33652898 6.1818829
18.325261 0.40538119 6.7873062
17.97114 0.48868263 7.3886682
17.571636 0.57500101 7.9671364
17.157765 0.66020797 8.5462613
16.714522 0.73151326 9.1499533
16.280873 0.83869927 9.7551868
15.819979 0.98447291 10.35152
15.305731 1.1561569 10.947682
14.739671 1.333674 11.550691
14.128548 1.5166288 12.170907
13.520642 1.700113 12.7776
12.931049 1.8675738 13.335771
12.341641 2.032321 13.903513
11.7942 2.1788138 14.417948
11.249806 2.2852803 14.913953
10.713349 2.3963518 15.396727
10.162891 2.5457049 15.845327
9.6264404 2.6874732 16.268172
9.1431165 2.7345266 16.660756
8.6793096 2.7523629 17.04224
8.2110107 2.7764646 17.412713
21.173979 0.89409482 -0.034302577
21.008856 0.87084643 0.68916279
20.813462 0.84433683 1.4474464
20.583995 0.8140162 2.237362
20.321517 0.80431964 3.0723883
20.030671 0.78791544 3.8606279
19.634814 0.79518325 4.6514753
19.214966 0.8315311 5.4384242
18.821315 0.88626835 6.1971554
18.473217 0.98733339 6.7935287
18.121438 1.0961755 7.3902806
17.710242 1.2000766 7.9567578
17.28978 1.3184831 8.5250412
16.847572 1.4428054 9.0919967
16.375049 1.5686576 9.6772578
15.901233 1.7253916 10.266707
15.380215 1.900797 10.865051
14.820392 2.0826089 11.469627
14.210773 2.2860791 12.085374
13.601164 2.4545665 12.661319
13.001744 2.615485 13.224857
12.406729 2.7693053 13.782656
11.831974 2.8995836 14.300358
11.277022 3.0469341 14.787836
10.726787 3.1967844 15.226029
10.166913 3.3412371 15.664904
9.6245122 3.4784788 16.080862
9.0918208 3.6100005 16.490424
8.6043108 3.6476785 16.896625
8.1209559 3.6751703 17.25737
21.383605 1.3576206 -0.034994781
21.217625 1.3328778 0.69246062
21.026036 1.3069172 1.4539297
20.788882 1.2997675 2.2499962
20.528582 1.3046464 3.069863
20.213531 1.3217879 3.8705768
19.797839 1.3724174 4.6620062
19.374077 1.4381346 5.4388478
18.958014 1.5188612 6.1904026
18.601918 1.6563715 6.7789182
18.240008 1.7979448 7.3617169
17.827946 1.9272652 7.9197193
17.398446 2.0737868 8.4753703
16.957064 2.2351215 9.0282837
16.49458 2.3699621 9.5960626
15.995089 2.5087596 10.172883
15.462307 2.6749934 10.771043
14.91217 2.8582687 11.36751
14.307329 3.0503539 11.964746
13.699252 3.2173982 12.535693
13.085722 3.3654445 13.092629
12.479116 3.5131853 13.643853
11.89638 3.6472229 14.151998
11.292264 3.8150827 14.623445
10.738211 3.9928796 15.051543
10.179982 4.1405228 15.471657
9.6331345 4.2778816 15.884283
9.0903902 4.4062217 16.295363
8.5445602 4.4959666 16.694912
8.0365983 4.5099518 17.073229
21.575464 1.8401199 -0.028564971
21.426699 1.8247157 0.68977339
21.22904 1.8235297 1.4540414
20.973091 1.8392513 2.2584672
20.715937 1.8744124 3.0585064
20.367978 1.9245269 3.8620525
19.946329 2.0131814 4.6429189
19.514687 2.1091712 5.417257
19.085038 2.2135012 6.1656077
18.725668 2.3673898 6.7414936
18.352195 2.5153867 7.318803
17.924797 2.6777785 7.8707414
17.484765 2.8447257 8.4221775
17.045547 3.0074014 8.9733729
16.595067 3.1548754 9.5297689
16.091578 3.3059854 10.090959
15.556535 3.4685642 10.674665
14.999001 3.6332139 11.26125
14.40464 3.7989099 11.831124
13.804091 3.9465137 12.386897
13.187451 4.093752 12.94646
12.560008 4.2480943 13.48521
11.958494 4.4258162 13.947504
11.345604 4.6028624 14.422441
10.746506 4.7658007 14.87349
10.19134 4.9335322 15.284685
9.6412398 5.0655751 15.681237
9.0885537 5.1931979 16.073525
8.5336494 5.2820565 16.444023
8.0221273 5.2780349 16.799451
21.755246 2.3681954 -0.034804844
21.617725 2.3882888 0.67258933
21.41377 2.4267259 1.436345
21.1501 2.4832355 2.2343578
20.881732 2.5525774 3.0300226
20.522022 2.6361755 3.8148773
20.090103 2.7199198 4.5989079
19.656687 2.8037906 5.3805073
19.218531 2.9087116 6.1314817
18.851063 3.0626079 6.7125374
18.446949 3.2387477 7.2643053
18.01569 3.4100458 7.8124991
17.576121 3.5768888 8.3649119
17.135225 3.7410024 8.9169272
16.684997 3.9111773 9.4676785
16.172362 4.0812662 10.015479
15.646226 4.2540065 10.584156
15.113289 4.396133 11.120937
14.500328 4.5300327 11.687226
13.898577 4.6705282 12.243813
13.28294 4.8298227 12.783302
12.647254 5.0138592 13.271565
12.027543 5.186569 13.739051
11.415146 5.356268 14.205134
10.814276 5.5032695 14.64657
10.201408 5.6546083 15.081104
9.6548779 5.8234235 15.456102
9.1060044 5.9138706 15.821186
8.558219 5.982218 16.175641
8.0235658 6.0397347 16.512826
21.92826 2.9629115 -0.054998488
21.798597 3.0518241 0.63447462
21.585264 3.1186044 1.4003551
21.320888 3.1885225 2.199365
21.050429 3.2575622 2.993278
20.663392 3.338454 3.7829739
20.230107 3.4314661 4.5653506
19.802346 3.52534 5.3361343
19.354331 3.6213638 6.0885174
18.954595 3.7808967 6.687164
18.534112 3.9667924 7.2155908
18.10751 4.140552 7.7535428
17.665472 4.3060531 8.3072702
17.224521 4.474549 8.8601623
16.758816 4.6580221 9.4005834
16.255365 4.8420173 9.9368653
15.731835 4.9797911 10.473145
15.207825 5.1087815 10.99096
14.623104 5.2462694 11.534598
14.009163 5.3971035 12.076412
13.362929 5.5694558 12.572242
12.728817 5.7437289 13.056643
12.110742 5.9021327 13.517959
11.486573 6.0504038 13.963953
10.886623 6.2064142 14.38367
[...]
POINT_DATA 900
VECTORS normals float
0.83896438 -0.53682312 0.089217231
0.84068247 -0.52248477 0.14234691
0.84287877 -0.50307777 0.19096635
0.84736555 -0.47683366 0.23366917
0.8465389 -0.45937229 0.26897769
0.84316445 -0.44562588 0.30081769
0.84086936 -0.42560356 0.33436556
0.83558238 -0.4057615 0.37035078
0.83025924 -0.37787656 0.40973029
0.8285667 -0.3574616 0.43092741
0.82358959 -0.34461031 0.45049298
0.81522217 -0.32605518 0.47864479
0.80344289 -0.29181503 0.51896388
0.79289905 -0.27350854 0.54452197
0.78596133 -0.25209149 0.5645482
0.77761807 -0.22981085 0.58523252
0.76556047 -0.2083568 0.60869089
0.75169374 -0.18022911 0.63440837
0.73964991 -0.156807 0.65446893
0.73131681 -0.14343005 0.66678598
0.72698456 -0.12950797 0.67433014
0.71755326 -0.12446836 0.68529187
0.71379256 -0.11684456 0.69054148
0.70993397 -0.1075909 0.69600141
0.70040037 -0.10289014 0.70629522
0.69429343 -0.10189741 0.71244197
0.69013364 -0.10188696 0.71647373
0.68297098 -0.098430009 0.72378324
0.67080687 -0.086235451 0.73660137
0.65721961 -0.073196108 0.75013646
0.85737265 -0.50259323 0.11096027
0.85723708 -0.48940187 0.16009495
0.85630244 -0.4741373 0.20479245
0.85133165 -0.46446406 0.24394173
0.85156218 -0.44262696 0.28093279
0.84920779 -0.43051024 0.30578924
0.84261188 -0.41085034 0.34814828
0.83812409 -0.38745052 0.38396627
0.82978548 -0.36686179 0.42055734
0.82672418 -0.34481008 0.44455949
0.82478162 -0.3239433 0.46346091
0.81625881 -0.2934631 0.49759519
0.80461443 -0.27182438 0.5279272
0.79345419 -0.24777515 0.55591179
0.78595562 -0.23163898 0.57325138
0.77598983 -0.2150916 0.59293793
0.76130515 -0.18904081 0.62022419
0.74633867 -0.16242224 0.64544372
0.73242821 -0.13598907 0.6671251
0.72498494 -0.11800642 0.67858037
0.72479677 -0.10944253 0.68021466
0.72179843 -0.089077623 0.686347
0.71043591 -0.07020052 0.70025188
0.70774579 -0.063328089 0.70362309
0.70550508 -0.053946037 0.70664871
0.69360956 -0.050501646 0.71857871
0.68653585 -0.047172293 0.72556413
0.67681455 -0.033047755 0.73541139
0.66186776 -0.028712172 0.74907055
0.64729396 -0.0045934154 0.76222662
0.87155995 -0.47582898 0.11819491
0.86815976 -0.46795634 0.16527399
0.86244372 -0.45873793 0.21389328
0.85918222 -0.44364196 0.2549269
0.85865254 -0.42602396 0.28499016
0.8522426 -0.41276053 0.32142074
0.84683548 -0.39207088 0.35937458
0.83989846 -0.36866317 0.39831902
0.83099564 -0.34354499 0.43751925
0.82664462 -0.31897819 0.46358557
0.82236919 -0.29699867 0.48528414
0.81520011 -0.27311197 0.51074321
0.804158 -0.24400325 0.54202613
0.7936387 -0.22784044 0.56411555
0.78858044 -0.21021785 0.5778835
0.77648382 -0.1925729 0.59999047
0.7597623 -0.16417077 0.62913369
0.73874167 -0.14035428 0.65921272
0.72553313 -0.11385685 0.67870339
0.72040569 -0.091588004 0.68747893
0.72049708 -0.069984941 0.68991744
0.71191978 -0.049483193 0.70051526
0.70994386 -0.034768834 0.70339949
0.70513477 -0.025251946 0.70862352
0.69900429 -0.01303465 0.71499867
0.6892983 -0.0056498693 0.72445561
0.67679254 0.0039677698 0.7361631
0.66325683 0.014617481 0.7482491
0.65230176 0.026633787 0.75749129
0.63721 0.040362902 0.76963254
0.88101744 -0.4556397 0.1272821
0.87644594 -0.45095141 0.16877602
0.86740602 -0.44697286 0.21868255
0.86182698 -0.43308411 0.26399321
0.85728101 -0.41830706 0.30014744
0.85346298 -0.40047451 0.3334983
0.84890036 -0.37871398 0.36870572
0.84102223 -0.35089811 0.41176707
0.82853141 -0.32369782 0.4568976
0.82421148 -0.29780824 0.48164892
0.82110872 -0.26898733 0.50341462
0.8149032 -0.24555514 0.52500996
0.80252168 -0.21845831 0.55518908
0.79212311 -0.19938533 0.57687648
0.78494608 -0.17862501 0.59325606
0.77198881 -0.15346683 0.61683159
0.75400992 -0.1284517 0.64418103
0.73417015 -0.10405753 0.67094428
0.72101092 -0.083224546 0.68790764
0.7140932 -0.05848369 0.69760345
0.71283875 -0.039021359 0.70024157
0.70825752 -0.014752755 0.7058
0.70490467 -0.0035950796 0.70929294
0.69903368 0.011357203 0.71499855
0.69164824 0.020498682 0.72194357
0.68083087 0.037812239 0.73146399
0.66494846 0.051432939 0.74511623
0.64785919 0.065644487 0.7589264
0.63653377 0.074649041 0.76762769
0.62697603 0.090447292 0.77377021
0.89124072 -0.43671187 0.12236308
0.88258281 -0.4361095 0.17565901
0.8764983 -0.42183375 0.23196338
0.87093414 -0.41246016 0.26711484
0.86339277 -0.40198897 0.30488979
0.85617523 -0.38529584 0.34425439
0.85006024 -0.36180779 0.38274366
0.83954121 -0.32682887 0.43399707
0.82880902 -0.29467581 0.47564879
0.82335164 -0.27052577 0.49890669
0.81832661 -0.23836891 0.52299314
0.81082792 -0.21643532 0.54379577
0.80056131 -0.19085575 0.56804548
0.79236098 -0.16465832 0.58741103
0.78269067 -0.14267321 0.60583799
0.76809648 -0.11319128 0.63025037
0.74935838 -0.091702753 0.65578398
0.73032439 -0.069904967 0.67951423
0.71756389 -0.051061216 0.69461846
0.70921714 -0.029765283 0.70436147
0.70556351 -0.0098826851 0.70857778
0.70218519 0.010383759 0.71191863
0.69848156 0.028302973 0.71506815
0.69297111 0.041621775 0.71976292
0.67839703 0.062535133 0.73202925
0.66597312 0.08334064 0.7413057
0.64887824 0.10917981 0.75301846
0.63327214 0.11949955 0.7646478
0.62256069 0.12879408 0.77190043
0.61688879 0.13079611 0.77610605
0.90372425 -0.41182157 0.11698493
0.89163896 -0.41544093 0.17996885
0.88625708 -0.40099698 0.23184006
0.87698784 -0.39280041 0.27676733
0.87036515 -0.37650119 0.31735054
0.86391858 -0.35297125 0.35924362
0.85504756 -0.32835269 0.40134547
0.84454385 -0.2949223 0.44695249
0.83335944 -0.25213646 0.4918732
0.82530752 -0.22633067 0.51734121
0.81489869 -0.20333903 0.54276456
0.8076458 -0.1768073 0.56253661
0.79825783 -0.1537846 0.58235276
0.78830182 -0.13283996 0.60077765
0.77775634 -0.10891429 0.61905795
0.76236107 -0.07904123 0.64230685
0.74394625 -0.05463558 0.66600221
0.7268975 -0.038164414 0.68568469
0.71396558 -0.02240653 0.69982219
0.70398044 -0.0036914286 0.71020977
0.69685887 0.018036563 0.71698145
0.69444391 0.032393352 0.71881731
0.68947789 0.055528728 0.72217505
0.67820881 0.078841409 0.73062771
0.6656366 0.10166913 0.73931814
0.65019995 0.12517514 0.74938055
0.63700507 0.14577556 0.75695048
0.6219821 0.15694312 0.76714218
0.61347428 0.16460863 0.77236863
0.60228435 0.17777658 0.77823457
0.91608856 -0.38069582 0.12590649
0.90454151 -0.38434386 0.18461975
0.89806269 -0.37381174 0.23183656
0.89187409 -0.35637901 0.27848628
0.88148375 -0.34135336 0.32628864
0.87195861 -0.3183145 0.3719732
0.86044309 -0.28768041 0.42056828
0.84793167 -0.25448367 0.46502682
0.83342004 -0.2160582 0.50865499
0.82363933 -0.18538746 0.53595685
0.81457035 -0.16415907 0.55635146
0.80500476 -0.14821757 0.5744553
0.79321385 -0.11596144 0.59779991
0.78282493 -0.099080813 0.61430296
0.769972 -0.075545978 0.63358971
0.75582363 -0.052052521 0.65270297
0.7400562 -0.028028077 0.67196075
0.7235683 -0.015474516 0.69007931
0.70856131 0.007596896 0.70560836
0.6973341 0.020590408 0.71645041
0.68840986 0.041466025 0.72413564
0.68117887 0.062532158 0.72944162
0.67399969 0.087957342 0.7334766
0.66216812 0.1100526 0.74122993
0.64797297 0.13526482 0.74955618
0.63536201 0.15283061 0.75693984
0.62046849 0.17213164 0.76510754
0.60631135 0.18674394 0.77298981
0.59456895 0.20232719 0.77817188
0.5754525 0.2187773 0.78802977
0.92738448 -0.35539498 0.11684366
0.91449538 -0.35105452 0.20114402
0.90534368 -0.34248137 0.25111617
0.8990531 -0.32359643 0.29493877
0.89067464 -0.29982286 0.34176737
0.8796887 -0.26539101 0.39460792
0.86551958 -0.23514426 0.4422477
0.84933355 -0.21335338 0.48281762
0.8304563 -0.18038023 0.5270724
0.81755678 -0.15703047 0.55402377
0.80606725 -0.13758191 0.57560994
0.79585338 -0.11492018 0.5944836
0.78419222 -0.087551747 0.61431039
0.77303214 -0.07094237 0.63038757
0.76144049 -0.054989217 0.64589827
0.74744603 -0.032992602 0.66350276
0.73226301 -0.012768834 0.68090222
0.71646855 0.0054158826 0.69759836
0.7037954 0.022328944 0.71005172
0.69092973 0.044650057 0.72154173
0.67890794 0.068901691 0.73098328
0.66960111 0.089024256 0.73736628
0.65517709 0.11350834 0.74689948
0.64798299 0.13656091 0.74931246
0.63341754 0.1564161 0.75783654
0.62199946 0.17505095 0.76319974
0.60746799 0.19500639 0.77003581
0.59229344 0.2159517 0.7762431
0.57264164 0.24445775 0.78251004
0.55486578 0.25912662 0.7905551
0.94169463 -0.31593224 0.1157499
0.92423342 -0.31883268 0.21009117
0.91565087 -0.30125341 0.26613883
0.90656531 -0.27720372 0.31827257
0.89621716 -0.24938301 0.3668827
0.88233662 -0.22612966 0.41273172
0.86482774 -0.20191726 0.45967641
0.84939619 -0.17706591 0.49716573
0.83222122 -0.14986996 0.53380411
0.81343857 -0.12989733 0.56696065
0.79756002 -0.11209637 0.59273301
0.78663468 -0.088938487 0.6109794
0.77744399 -0.068570989 0.62520306
0.76465238 -0.053708973 0.64220097
0.75093486 -0.040804926 0.6591144
0.73776965 -0.02095016 0.67472738
0.72285037 0.0015784683 0.69100279
0.70764891 0.020011854 0.70628078
0.69387147 0.041462298 0.71890421
0.6781883 0.067461765 0.73178518
0.66676668 0.092449685 0.73951015
0.65585229 0.11531689 0.74602935
0.64069021 0.14157881 0.75463335
0.63255683 0.15968378 0.75787396
0.61889544 0.18239722 0.76400241
0.60522207 0.20836303 0.76830403
0.58747199 0.23391765 0.77469942
0.56824422 0.26213331 0.77999015
0.55007516 0.28264986 0.78582846
0.53722941 0.29554672 0.78995993
0.95497148 -0.28210752 0.091895653
0.93862743 -0.27771464 0.20458035
0.92403426 -0.26498971 0.2755742
0.91014618 -0.24068937 0.33719809
0.89827634 -0.2164893 0.38240294
0.88259091 -0.19435743 0.42808699
0.86568469 -0.16882666 0.47126169
0.84996379 -0.15413334 0.50379011
0.82849138 -0.12632378 0.5455679
0.80972843 -0.11041409 0.57632335
0.79296078 -0.095710155 0.6017082
0.77743305 -0.073725635 0.6246298
0.76912852 -0.058952044 0.63636937
0.7559557 -0.041888091 0.65328123
0.744259 -0.026116567 0.6673803
0.72583151 -0.0032110043 0.68786503
0.71228696 0.0183062 0.7016496
0.69908217 0.039289996 0.71396108
0.68315084 0.068184128 0.72708724
0.66652258 0.090305215 0.73999501
0.65325314 0.11914609 0.74770619
0.64103405 0.1452345 0.75364599
0.62958549 0.16850792 0.75843734
0.61745196 0.18839903 0.76371387
0.59958022 0.21317535 0.77140121
0.58604293 0.24110696 0.77357683
0.56567893 0.26907958 0.77948927
0.54572075 0.2917416 0.78554166
0.53271544 0.30748786 0.78845766
0.51602996 0.32577563 0.79220156
0.96243127 -0.25483617 0.093726038
0.94763641 -0.2453292 0.20444761
0.92963213 -0.23276584 0.28566442
0.91149835 -0.21676168 0.3495499
0.89725435 -0.19976728 0.39373552
0.87829603 -0.17678682 0.4442325
0.86322795 -0.15273963 0.4811529
0.84695316 -0.13253912 0.51488224
0.82447221 -0.11036865 0.55503543
0.80685427 -0.09284939 0.58340824
0.78610029 -0.078998939 0.61302977
0.77099436 -0.058628278 0.63413755
0.76158674 -0.04442719 0.64653837
0.75120929 -0.024299783 0.65961665
0.73562722 -0.004386241 0.67737239
0.7154922 0.019317364 0.6983536
0.69929163 0.038893976 0.71377761
0.68823347 0.061676451 0.72286286
0.67108233 0.087269909 0.73622855
0.65614269 0.11501399 0.74582073
0.63901348 0.14353701 0.75568439
0.63107437 0.16801796 0.7573078
0.61662482 0.1925538 0.76334584
0.60437822 0.21834312 0.766194
0.58343819 0.2418315 0.77531761
0.56208785 0.26850647 0.78227969
0.54672056 0.29325005 0.78428377
0.53378075 0.30911043 0.78710156
0.51741766 0.32335667 0.79228746
0.50469637 0.34083667 0.79316577
0.96951856 -0.23358657 0.073966732
0.95445291 -0.22320445 0.19798843
0.93352733 -0.21125571 0.28965107
0.91334711 -0.2021076 0.35348208
0.89594608 -0.18873179 0.40207081
0.87578936 -0.16271344 0.45444179
0.85774321 -0.13969632 0.49473379
0.84110741 -0.11584651 0.52831611
0.81942518 -0.091296303 0.56586868
0.80318374 -0.076552445 0.59079235
0.77973405 -0.059118772 0.62331355
0.76353847 -0.045474425 0.64415921
0.75401911 -0.028819264 0.65621996
0.74435563 -0.0061866125 0.66775476
0.72660134 0.022817731 0.68668031
0.70873508 0.041893784 0.70422972
0.69369447 0.064202361 0.71740229
0.67478988 0.086830964 0.73288403
0.66233376 0.10616807 0.74164839
0.64338815 0.13726575 0.75313332
0.62662114 0.16148282 0.76241016
0.61871091 0.18545596 0.76341528
0.60464797 0.21377432 0.76726877
0.58827145 0.24736618 0.76990043
0.56713743 0.27177404 0.77749213
0.54942428 0.28734529 0.78457992
0.53667559 0.30572116 0.78645654
0.52382456 0.32768916 0.78627454
0.50887092 0.34100841 0.79041992
0.48549861 0.36127377 0.79609822
0.97476017 -0.21220157 0.069376558
0.95806232 -0.2103692 0.19458001
0.93720134 -0.20478274 0.2823432
0.91489291 -0.19369609 0.35419316
0.89365006 -0.1780556 0.41192934
0.87213643 -0.15419533 0.46432945
0.85303494 -0.12911902 0.50562799
0.83427886 -0.10226208 0.54177601
0.81500096 -0.080343617 0.57386265
0.79896926 -0.059339032 0.59843713
0.77229758 -0.040622873 0.63396075
0.75547268 -0.024931869 0.65470561
0.74160127 -0.005989674 0.6708142
0.73194492 0.016957269 0.68115277
0.72005274 0.041646595 0.69266848
0.7030788 0.066327551 0.7080119
0.68125731 0.093730261 0.72601868
0.66829312 0.10922688 0.73583544
0.65036782 0.13270887 0.7479372
0.63042136 0.15776202 0.76005266
0.61359358 0.1818391 0.76839928
0.60148735 0.21017337 0.77073998
0.58829221 0.23361932 0.77416683
0.5733186 0.2618367 0.77636803
0.55575639 0.28680601 0.7803058
0.53528842 0.30602962 0.78728151
0.52453777 0.32202771 0.78813596
0.51135216 0.34080341 0.78890557
0.49005983 0.36488777 0.79164277
0.4636434 0.38307373 0.7989301
0.978216 -0.19762147 0.06355482
0.96054497 -0.19619851 0.19712815
0.93935791 -0.19127962 0.28463805
0.91387393 -0.18083254 0.36350245
0.89177128 -0.16530271 0.42121133
0.86943349 -0.14202528 0.47319575
0.84604735 -0.11177667 0.52125796
0.82849205 -0.088415063 0.55297712
0.80735994 -0.065152548 0.58645126
0.78753951 -0.04250701 0.61479645
0.76665224 -0.023389549 0.6416364
0.74914498 -0.0099469163 0.66233138
0.73331607 0.0098531025 0.67981649
0.71701119 0.031074844 0.69636866
0.70520071 0.061237505 0.70635821
0.68911946 0.086272244 0.7194939
0.67371168 0.10847466 0.73098962
0.66118159 0.12975853 0.73891923
0.63692918 0.15728039 0.75470796
0.61808318 0.17829575 0.76562642
0.59894949 0.2050786 0.77408157
0.58877302 0.2249968 0.77635222
0.57182518 0.25115802 0.78098375
0.55976074 0.27342325 0.78224526
0.54090535 0.29976565 0.7858511
0.52547635 0.32342142 0.78693913
0.50994559 0.34166489 0.78944322
0.49573098 0.35787338 0.79131375
0.47262364 0.38456346 0.79292991
0.43930211 0.4156582 0.79639306
0.9821956 -0.18340192 0.040688262
0.96478451 -0.18629489 0.18570155
0.94157853 -0.18142945 0.28374852
0.91477554 -0.17012549 0.36639191
0.88879302 -0.14620107 0.43436415
0.86379122 -0.1192772 0.48952801
0.8417498 -0.09584392 0.53129203
0.8212709 -0.070873617 0.56611928
0.80117612 -0.047902886 0.59650828
0.78155416 -0.028107409 0.62320387
0.76172687 -0.012594136 0.64777586
0.74421801 -0.00068641503 0.66793644
0.72509783 0.019133083 0.68838003
0.70659287 0.042088976 0.70636749
0.6859422 0.070741092 0.72420923
0.67329323 0.097745906 0.73288605
0.66445844 0.11915362 0.73776514
0.64616329 0.14314576 0.74965478
0.6247768 0.17190572 0.76164452
0.60496089 0.19470823 0.77208227
0.58855096 0.22244787 0.7772546
0.57432602 0.23962421 0.78277063
0.56027282 0.26454128 0.7849282
0.54440913 0.29062778 0.78686352
0.52416822 0.31642073 0.79064884
0.51054967 0.33778813 0.79072006
0.49657054 0.36024006 0.78971184
0.47691299 0.38318675 0.79102586
0.44966865 0.41047836 0.79328786
0.41310936 0.43794718 0.79846285
0.98466541 -0.17404315 0.011958644
0.96800602 -0.17392502 0.18087131
0.94442948 -0.16724395 0.28298838
0.91646873 -0.15250541 0.36990157
0.88534636 -0.1269976 0.44725098
0.8602671 -0.10368399 0.49918949
0.83671912 -0.0812755 0.54156754
0.81652964 -0.060553626 0.57411898
0.7965126 -0.035153183 0.60359915
0.77381419 -0.016159401 0.6332065
0.75408834 -0.0021200873 0.65676958
0.73587761 0.013778689 0.67697437
0.71546149 0.029308177 0.69803717
0.69427934 0.05195026 0.71782823
0.67367519 0.076531745 0.73505417
0.65567041 0.10365603 0.74789822
0.64810707 0.1305341 0.75027866
0.63341814 0.15464167 0.75820011
0.60872785 0.18530498 0.77143533
0.58961232 0.21344806 0.77897191
0.57751687 0.23373394 0.78220375
0.56331059 0.2551785 0.78585311
0.54641727 0.27895782 0.78969026
0.53141002 0.30141283 0.79167777
0.51061566 0.32665891 0.79533993
0.49585783 0.35125921 0.79419266
0.47887137 0.3795947 0.79157443
0.46012496 0.40972866 0.78765948
0.43333774 0.43479298 0.78941337
0.38249751 0.47342447 0.79345128
0.98550521 -0.16844046 0.020181666
0.97068681 -0.16480058 0.17495109
0.94831326 -0.15541885 0.27667118
0.91616967 -0.1360007 0.37701055
0.88314663 -0.11596921 0.45453622
0.85661461 -0.093020993 0.50750222
0.8323898 -0.069247035 0.54984732
0.81040227 -0.045354737 0.58411567
0.79154132 -0.025635831 0.61057771
0.76633158 -0.0054250719 0.64242235
0.74621041 0.005708737 0.66568568
0.72789032 0.020664609 0.68538213
0.704354 0.038814994 0.70878688
0.68221142 0.059770118 0.72870783
0.65841521 0.088483853 0.74743563
0.63974309 0.11431964 0.76003934
0.63169441 0.14378382 0.76176662
0.61668809 0.16365035 0.77000933
0.59665085 0.19620609 0.77814583
0.57559363 0.22281317 0.78679494
0.55955697 0.24718607 0.79107208
0.54614586 0.2702854 0.79288745
0.52542885 0.29314565 0.79874285
0.51625267 0.31225282 0.79748439
0.4920938 0.34544337 0.79906981
0.4753161 0.3701981 0.79814032
0.4577535 0.39948715 0.79427436
0.43502892 0.4340104 0.78891369
0.40102765 0.47066338 0.78590891
0.35237705 0.50719779 0.78649909
0.98699401 -0.1602329 0.012971041
0.97350639 -0.16221288 0.1611592
0.94960659 -0.14972345 0.27537287
0.91647992 -0.1256651 0.37983266
0.8819025 -0.10113987 0.46045489
0.85207995 -0.075691974 0.51790972
0.82538056 -0.05279646 0.56210272
0.80541665 -0.032755887 0.59180324
0.78687608 -0.013919028 0.61695404
0.7628671 0.00072205729 0.64655492
0.73977284 0.020687974 0.67253858
0.72035342 0.032336614 0.69285301
0.69809367 0.051794368 0.71413064
0.67253483 0.075008189 0.73625449
0.64191446 0.10200706 0.75996078
0.622624 0.13203525 0.77130153
0.6099499 0.16048405 0.77601932
0.59677589 0.18457272 0.78089144
0.5827297 0.20502912 0.78637724
0.56418865 0.22759708 0.79365656
0.54180548 0.25824909 0.79984638
0.52521469 0.28796271 0.80076651
0.51418095 0.31077086 0.79939942
0.48943611 0.34194681 0.8021999
0.46515237 0.37686092 0.80100507
0.44744956 0.40174656 0.79899224
0.42767921 0.43266584 0.79365658
0.39610742 0.46964087 0.78900974
0.36835498 0.49425073 0.78742036
0.33300151 0.52484423 0.78335722
0.98836757 -0.15198447 -0.0055012284
0.97880778 -0.15027205 0.13911735
0.95150595 -0.13749224 0.27519503
0.91499036 -0.11809646 0.38580549
0.87955569 -0.089377844 0.46732578
0.84945342 -0.06199036 0.52400962
0.82311084 -0.043122737 0.56624109
0.80224127 -0.025085955 0.59647266
0.78083673 -0.0053086528 0.62471259
0.75932334 0.017198352 0.65048619
0.74164532 0.036108556 0.66981967
0.71644298 0.052327659 0.69568044
0.6879142 0.075752904 0.72182792
0.65884126 0.10123069 0.74543983
0.6283603 0.1314392 0.76673794
0.60850212 0.1571747 0.77783114
0.59209838 0.18337976 0.78472376
0.58199398 0.20093494 0.78797726
0.56524159 0.22144385 0.79464745
0.54690542 0.24596064 0.80024861
0.52180456 0.27875882 0.80623416
0.50656218 0.30695291 0.80571376
0.48145379 0.34539764 0.80554498
0.45678505 0.377703 0.80541161
0.4369711 0.41204659 0.79954604
0.41474209 0.44281006 0.79492657
0.39237309 0.46967559 0.79085283
0.36041229 0.50462897 0.78450786
0.32423721 0.53381553 0.78096812
0.28852619 0.56532606 0.77276069
0.98827697 -0.15266591 0.0013251873
0.97904612 -0.15029759 0.13740209
0.95109215 -0.13607799 0.27732022
0.9137951 -0.11307973 0.39011728
0.88029141 -0.086779192 0.46642943
0.84804723 -0.062327461 0.52624251
0.82053749 -0.037823298 0.57033992
0.79724545 -0.016987793 0.6034162
0.77406027 0.0059969146 0.63308351
0.75211183 0.029872106 0.65835815
0.73414918 0.060769391 0.67626331
0.70516604 0.077612693 0.70478162
0.67290912 0.097987745 0.73320646
0.6436371 0.13188789 0.7538812
0.61515453 0.16325933 0.77131789
0.59376209 0.18681906 0.78265268
0.58124119 0.20314162 0.78796711
0.56889989 0.22425029 0.79124252
0.5526371 0.24375274 0.79697982
0.52932391 0.26696586 0.80532318
0.50218111 0.3031086 0.8099008
0.46999334 0.34355048 0.81306785
0.44556403 0.38106678 0.81009926
0.41810544 0.41785573 0.80658814