# vtk DataFile Version 2.0
Grain example
ASCII
DATASET UNSTRUCTURED_GRID
POINTS 900 float
-1.0441462 17.611354 -7.5697007
-1.0942368 17.803858 -7.0615009
-1.145007 17.997046 -6.5532295
-1.1927094 18.188832 -6.0417966
-1.2148765 18.387129 -5.5362882
-1.2343571 18.533465 -5.1095718
-1.2654187 18.67055 -4.6783171
-1.3061425 18.77259 -4.245507
-1.3661096 18.837179 -3.7885137
-1.3983905 18.894904 -3.3143097
-1.4168024 18.954292 -2.8325505
-1.4419664 18.983827 -2.3327679
-1.4584946 19.019236 -1.8270576
-1.4278551 19.068531 -1.3391031
-1.3883499 19.114386 -0.84075363
-1.3460069 19.155367 -0.32361494
-1.3142235 19.145277 0.25322512
-1.258724 19.095654 0.88823368
-1.1864619 18.991744 1.5837192
-1.1359061 18.837197 2.3643131
-1.093662 18.669773 3.1716742
-1.0920729 18.428937 3.9564245
-1.0930126 18.135667 4.6976204
-1.0889434 17.827564 5.3948018
-1.0762306 17.530314 6.0616953
-1.0729041 17.193619 6.7448457
-1.0673361 16.790091 7.4455191
-1.0192145 16.371397 8.1523349
-0.97721336 15.958861 8.8597951
-0.92534724 15.553931 9.5559261
-1.7600184 17.253621 -7.5821577
-1.8107885 17.446808 -7.0738863
-1.8678592 17.635883 -6.5632921
-1.9302025 17.821499 -6.0469987
-2.001117 17.984708 -5.5473967
-2.0665825 18.101616 -5.1094508
-2.1269475 18.205467 -4.6651538
-2.1793505 18.254098 -4.2029398
-2.2354048 18.298903 -3.7325825
-2.2885754 18.331196 -3.2591264
-2.3191511 18.363435 -2.7644379
-2.3341203 18.392372 -2.2690219
-2.3069637 18.439111 -1.7932269
-2.2844489 18.474303 -1.30393
-2.2554968 18.515263 -0.81326693
-2.2176774 18.528261 -0.26984286
-2.1777119 18.514575 0.31572115
-2.1166087 18.474828 0.95893727
-2.0543694 18.356061 1.6969727
-1.9938546 18.196221 2.5095482
-1.941562 18.030827 3.3176775
-1.8911868 17.866006 4.0999498
-1.8794466 17.613597 4.857572
-1.8741152 17.335256 5.5722155
-1.8422666 17.05484 6.2651454
-1.8197676 16.745891 6.9388094
-1.8019865 16.387567 7.629069
-1.7472475 15.980936 8.3622439
-1.6982492 15.575187 9.074279
-1.6131934 15.203285 9.7413568
-2.4724901 16.892466 -7.5949725
-2.5445501 17.074031 -7.0829664
-2.6331231 17.24254 -6.560758
-2.7273164 17.406251 -6.0362992
-2.8178686 17.53813 -5.547162
-2.9012314 17.613699 -5.0904028
-2.9743846 17.67276 -4.6243451
-3.0455965 17.710645 -4.1516869
-3.1036018 17.733222 -3.6613313
-3.1610695 17.752307 -3.1771325
-3.1915175 17.775771 -2.7003215
-3.1775597 17.8123 -2.2251551
-3.1522683 17.852648 -1.7429842
-3.1302846 17.887294 -1.2558641
-3.1124146 17.895574 -0.73830803
-3.0856667 17.886243 -0.19309671
-3.0474615 17.878879 0.37879339
-2.9954355 17.827026 1.0488575
-2.9271638 17.703544 1.812317
-2.8540961 17.557883 2.6324513
-2.7941424 17.395233 3.4381143
-2.7284052 17.244296 4.2328785
-2.6922718 17.03833 5.0066899
-2.6747236 16.789341 5.7246955
-2.6442956 16.527724 6.4187712
-2.6067908 16.267585 7.1182436
-2.5812033 15.944742 7.8158157
-2.5267997 15.555983 8.5387354
-2.4373478 15.187926 9.2340652
-2.3042973 14.862138 9.8585794
-3.2139084 16.501094 -7.5878108
-3.323091 16.657295 -7.0619396
-3.4166041 16.820321 -6.5375508
-3.5236006 16.944647 -6.0034459
-3.6194784 17.037542 -5.5123386
-3.7021678 17.102823 -5.052248
-3.7775442 17.128209 -4.5671183
-3.8547805 17.145015 -4.080133
-3.9150249 17.168158 -3.5930274
-3.9631731 17.18874 -3.110598
-3.9852905 17.212376 -2.6402447
-3.9966919 17.234841 -2.1744226
-3.9867701 17.267297 -1.6923791
-3.9671136 17.282545 -1.1801562
-3.9434875 17.272349 -0.64289469
-3.9258962 17.259881 -0.098981143
-3.9055209 17.240695 0.45980585
-3.8652562 17.186009 1.1240537
-3.7978137 17.050888 1.9083479
-3.7250394 16.906364 2.7302557
-3.6498003 16.759361 3.5519045
-3.5858441 16.606677 4.3511713
-3.5192519 16.439199 5.1483342
-3.476906 16.223941 5.8919467
-3.4354167 15.991153 6.5860213
-3.3928758 15.746852 7.2816446
-3.3443486 15.461795 7.974645
-3.2778466 15.141447 8.6534689
-3.1692344 14.815308 9.322052
-3.0092041 14.523572 9.9189957
-3.9715077 16.094644 -7.5739669
-4.0842841 16.224787 -7.0392532
-4.2140937 16.331944 -6.492621
-4.3340308 16.448387 -5.9538345
-4.4246662 16.522176 -5.4685913
-4.4881284 16.546871 -4.9846326
-4.5573831 16.558174 -4.4932593
-4.6034064 16.576617 -4.0110533
-4.6461868 16.594326 -3.5239604
-4.6758839 16.614294 -3.052893
-4.7049006 16.633577 -2.5818965
-4.7314011 16.652225 -2.1072436
-4.7471089 16.655569 -1.6196505
-4.724351 16.646775 -1.0812079
-4.7075354 16.632979 -0.54156983
-4.6911427 16.62003 -0.0010156512
-4.6815633 16.590636 0.57351373
-4.6621702 16.526601 1.235394
-4.619606 16.388019 2.0099411
-4.5592687 16.242183 2.8278468
-4.4945739 16.100564 3.6514355
-4.4381464 15.958663 4.4697529
-4.3708307 15.807494 5.2904097
-4.2777183 15.667613 6.057395
-4.2285465 15.435695 6.7568018
-4.1709997 15.216588 7.4294347
-4.0731708 15.007692 8.0747558
-3.9949698 14.71553 8.7535115
-3.8615429 14.438259 9.3627175
-3.7039098 14.160151 9.9656409
-4.7119283 15.647981 -7.5395246
-4.8342583 15.747611 -6.9936814
-4.9552289 15.845872 -6.4479803
-5.0813055 15.922972 -5.8863075
-5.1722264 15.943095 -5.3962214
-5.2319018 15.954368 -4.9092592
-5.2771554 15.97288 -4.4253912
-5.3160285 15.99458 -3.9455982
-5.3501411 16.011491 -3.4663059
-5.3775368 16.030407 -2.9928658
-5.4033157 16.048119 -2.5187248
-5.4289133 16.05545 -2.0307854
-5.4534281 16.028358 -1.5071712
-5.4753683 16.005748 -0.98084511
-5.4587684 15.993546 -0.44996559
-5.4428608 15.973479 0.098181179
-5.4424575 15.937473 0.68745275
-5.4283075 15.859162 1.3792632
-5.3856699 15.722357 2.1460014
-5.3363545 15.580189 2.9380956
-5.2893731 15.432957 3.7616396
-5.2221916 15.297437 4.5911081
-5.1425902 15.159872 5.4176089
-5.045883 15.033742 6.185212
-4.9508379 14.891059 6.8920751
-4.8617487 14.700319 7.5518445
-4.7666485 14.519541 8.1859177
-4.6766865 14.298745 8.8201985
-4.5427911 14.060536 9.4005588
-4.395612 13.78064 10.014044
-5.3738531 15.189776 -7.4902749
-5.501634 15.284438 -6.9421975
-5.6191922 15.365105 -6.3795945
-5.7353281 15.420061 -5.8207943
-5.8056845 15.41949 -5.3328736
-5.8700645 15.423357 -4.8472417
-5.9370382 15.425452 -4.3587645
-5.9795933 15.437029 -3.8838951
-6.0144789 15.45303 -3.4080069
-6.0475819 15.462853 -2.9297341
-6.0834926 15.462353 -2.443448
-6.114438 15.435028 -1.9213767
-6.1469161 15.404442 -1.397443
-6.1716707 15.380603 -0.87920776
-6.1919141 15.353491 -0.3588337
-6.2063907 15.318585 0.21497037
-6.2053902 15.282398 0.80505044
-6.1909542 15.193437 1.5219351
-6.1480593 15.052834 2.2929616
-6.1129372 14.912641 3.0960109
-6.0565997 14.782296 3.9031343
-5.991571 14.647419 4.7180569
-5.9043381 14.523412 5.5178618
-5.7925372 14.414549 6.2637094
-5.6536714 14.327339 6.9914398
-5.534307 14.180663 7.6624627
-5.4249175 14.008265 8.2839119
-5.3001295 13.831157 8.8795067
-5.1795067 13.635052 9.4567001
-5.0577999 13.404642 10.046559
-6.0131186 14.752269 -7.446563
-6.138339 14.821429 -6.8763484
-6.240683 14.895386 -6.3092055
-6.3221463 14.92961 -5.771318
-6.387756 14.931175 -5.2812412
-6.4555804 14.929743 -4.7901017
-6.5112426 14.934447 -4.3087902
-6.5611304 14.940419 -3.8367174
-6.5989986 14.945429 -3.3545405
-6.6269845 14.953477 -2.869835
-6.658279 14.928779 -2.3546569
-6.6882785 14.902611 -1.828328
-6.7143003 14.877412 -1.3154061
-6.7437836 14.847668 -0.79544935
-6.7760244 14.810421 -0.2615483
-6.8183178 14.760253 0.30721396
-6.8418955 14.708508 0.92129239
-6.8479781 14.60841 1.6444447
-6.8165394 14.470405 2.4331094
-6.7695383 14.337396 3.2337464
-6.7231324 14.200602 4.0370187
-6.6527478 14.091434 4.8051528
-6.564561 13.976326 5.5845248
-6.442644 13.878354 6.3147018
-6.297072 13.795018 7.0287786
-6.1322644 13.716176 7.7145238
-5.9975313 13.581757 8.330733
-5.8443496 13.439343 8.905787
-5.7165867 13.240733 9.4889924
-5.5928019 13.042538 10.050666
-6.5856286 14.329196 -7.4040684
-6.6819285 14.407361 -6.8279356
-6.7734581 14.461668 -6.2567861
-6.8520408 14.482707 -5.728828
-6.9208861 14.4823 -5.2375809
-6.9762034 14.487501 -4.7545631
-7.0275369 14.490546 -4.2797658
-7.0723987 14.489609 -3.8004212
-7.1167321 14.48359 -3.3072733
-7.1605475 14.462048 -2.7986608
-7.1938713 14.433155 -2.2728953
-7.2206558 14.409145 -1.7590213
-7.24753 14.379999 -1.2443083
-7.2760943 14.346316 -0.71904386
-7.3197011 14.301011 -0.16608593
-7.3629737 14.254741 0.39717037
-7.405066 14.182975 1.0263719
-7.4163452 14.083898 1.7704454
-7.3947329 13.951901 2.5579454
-7.3410905 13.822663 3.3562236
-7.2729097 13.708634 4.1332201
-7.2013415 13.605355 4.8925981
-7.1130932 13.506198 5.646901
-6.9858306 13.413464 6.3635695
-6.8421536 13.326974 7.0673896
-6.6700665 13.266181 7.7408324
-6.4914365 13.207804 8.3333353
-6.3305355 13.088435 8.9101904
-6.2064912 12.890193 9.4868174
-6.0821903 12.681893 10.064972
-7.117282 13.910195 -7.3655424
-7.2116446 13.98287 -6.785298
-7.3016484 14.02671 -6.1978778
-7.3779279 14.038682 -5.6841049
-7.4414209 14.03643 -5.1977365
-7.4901146 14.042046 -4.7240473
-7.5315638 14.040204 -4.2398337
-7.5690169 14.038725 -3.758613
-7.6147905 14.022693 -3.2541097
-7.6573994 13.98662 -2.7266202
-7.7007049 13.947875 -2.2060282
-7.7299674 13.919445 -1.6945496
-7.7564101 13.887167 -1.1738237
-7.7911274 13.844886 -0.63195668
-7.8323356 13.80113 -0.076874991
-7.8767207 13.746142 0.50687173
-7.9172404 13.683269 1.1401094
-7.9233888 13.587035 1.8711113
-7.8843173 13.465289 2.6561096
-7.8413247 13.354014 3.4355917
-7.7693573 13.247554 4.2066298
-7.6879987 13.150103 4.9624877
-7.5895289 13.061566 5.7123951
-7.4765846 12.97628 6.4016487
-7.3238892 12.908487 7.0775893
-7.1576796 12.846694 7.7489949
-6.9657027 12.812018 8.32669
-6.7923245 12.733124 8.9013215
-6.649611 12.56335 9.4834934
-6.5221656 12.356674 10.075571
-7.6350646 13.492917 -7.330967
-7.7128723 13.545226 -6.7368636
-7.796347 13.596325 -6.1448187
-7.856747 13.610014 -5.654294
-7.9070528 13.613712 -5.1761197
-7.9471421 13.610502 -4.6920488
-7.9874015 13.607463 -4.2079604
-8.0289323 13.602164 -3.7194232
-8.0743518 13.563694 -3.1908079
-8.1169608 13.527622 -2.6633175
-8.150908 13.497835 -2.1522586
-8.187025 13.459276 -1.6345399
-8.2253548 13.414174 -1.1114425
-8.2626044 13.371872 -0.55717184
-8.3021089 13.329226 -0.0022485777
[...]
POINT_DATA 900
VECTORS normals float
-0.2862894 0.81149576 -0.5094242
-0.30747302 0.82472781 -0.47464131
-0.34380072 0.8379939 -0.42375381
-0.38339011 0.84825336 -0.36534677
-0.42162627 0.85098138 -0.31314849
-0.44688527 0.85467215 -0.26425191
-0.46844989 0.85326648 -0.22910917
-0.48937311 0.85012242 -0.19443724
-0.50977625 0.84508946 -0.16109616
-0.52737172 0.83946038 -0.13109289
-0.54260168 0.83471607 -0.093981385
-0.55255533 0.83118285 -0.061787314
-0.55895646 0.82849976 -0.033997346
-0.56271698 0.82650724 -0.015341769
-0.56153287 0.82744598 0.0037414387
-0.56169088 0.82705352 0.022041556
-0.56068166 0.82661158 0.048470336
-0.55870298 0.82521134 0.082929048
-0.55360462 0.82304815 0.12693965
-0.54240683 0.82179571 0.17448964
-0.52101138 0.81818236 0.24315584
-0.49238778 0.81505184 0.30536008
-0.44450043 0.8212741 0.35767055
-0.41209212 0.8183145 0.40067626
-0.38297139 0.81736589 0.43040204
-0.35351349 0.81569184 0.45790287
-0.33071131 0.81115855 0.48233996
-0.28473079 0.8030332 0.52351318
-0.24972451 0.79612677 0.55119855
-0.21970445 0.78547329 0.57858592
-0.3276356 0.807081 -0.49119769
-0.36426514 0.82415906 -0.43367356
-0.40872326 0.82991 -0.37972976
-0.43759061 0.840332 -0.31993215
-0.47572425 0.83945538 -0.2626806
-0.49698267 0.83822241 -0.22448034
-0.51544683 0.83683608 -0.18444496
-0.52943457 0.83167058 -0.16740095
-0.54688285 0.8262703 -0.13489452
-0.56342113 0.81943098 -0.1053067
-0.57644588 0.81417242 -0.069522874
-0.57894285 0.81400031 -0.047208789
-0.58276145 0.81220881 -0.026569528
-0.58504158 0.81094507 -0.0097181851
-0.58377352 0.8118907 0.0064786045
-0.58395327 0.8112522 0.029469389
-0.58174752 0.81134595 0.057337292
-0.57956092 0.80998316 0.089646062
-0.57686588 0.80703508 0.12617502
-0.56724317 0.80425882 0.17720875
-0.54760901 0.80632003 0.22354504
-0.5198338 0.80873879 0.2751625
-0.48670924 0.8107564 0.32525093
-0.45665155 0.81162012 0.36433795
-0.43208765 0.80865358 0.3992238
-0.40040799 0.80633356 0.43531555
-0.37375839 0.80563184 0.45963247
-0.33332643 0.80024167 0.49850453
-0.29658345 0.79675635 0.52651455
-0.26953896 0.78370583 0.55960158
-0.38185576 0.80602005 -0.45223651
-0.42915274 0.81772668 -0.38360266
-0.46134477 0.82396414 -0.32900471
-0.49625008 0.82326673 -0.27562249
-0.52399227 0.8216301 -0.22440162
-0.543874 0.81943649 -0.18090029
-0.56018585 0.81416256 -0.15274536
-0.57333659 0.80984245 -0.12425927
-0.58503974 0.80443596 -0.10301112
-0.59697009 0.79830487 -0.079599295
-0.59951167 0.79839342 -0.056157958
-0.60089805 0.79840771 -0.038296945
-0.60280021 0.7975018 -0.024955607
-0.60200143 0.79846291 -0.007158825
-0.60229507 0.79817302 0.012668223
-0.60203292 0.79802602 0.026661427
-0.60085846 0.79726589 0.05775994
-0.59612436 0.79750696 0.092835319
-0.59116033 0.79615977 0.12907006
-0.58459436 0.79419625 0.16583653
-0.5666378 0.79754528 0.20698581
-0.54670077 0.79855028 0.25186448
-0.51441424 0.80327108 0.30022252
-0.48973271 0.80457394 0.33589084
-0.46454393 0.80323507 0.37284362
-0.43372414 0.80419745 0.40638631
-0.4084066 0.8030309 0.43398782
-0.37640853 0.79893195 0.46906755
-0.3393572 0.79459303 0.50344674
-0.31306794 0.78241152 0.53834995
-0.44083435 0.80503455 -0.39696907
-0.48192302 0.80692441 -0.34150139
-0.500986 0.81466416 -0.29212213
-0.5333738 0.81471265 -0.22749876
-0.55308282 0.81238533 -0.18474166
-0.56986836 0.80762927 -0.15160808
-0.58342015 0.80307633 -0.12119959
-0.59562761 0.79648883 -0.10408311
-0.59987212 0.79537855 -0.086754854
-0.60937265 0.79014811 -0.065809911
-0.61301462 0.78879613 -0.044874637
-0.61426072 0.78846363 -0.031762846
-0.61724648 0.78660176 -0.016261982
-0.61684787 0.78708175 0.0010088376
-0.61851013 0.78565707 0.013718255
-0.61855875 0.78531956 0.025656712
-0.61525024 0.78646376 0.054239252
-0.61272073 0.7849667 0.091654712
-0.60897147 0.78341118 0.12418001
-0.60006165 0.78348506 0.16148431
-0.58677443 0.7860177 0.19460713
-0.57187648 0.78996712 0.22115436
-0.54140829 0.79786325 0.26512506
-0.51364306 0.80304858 0.30213207
-0.49033418 0.80096944 0.34354091
-0.47187349 0.79890432 0.37294409
-0.43547451 0.79999127 0.41276618
-0.40569476 0.7984391 0.44486714
-0.37482035 0.79038862 0.48455706
-0.35975364 0.7797533 0.51240814
-0.48388397 0.79951418 -0.35585585
-0.50777249 0.80370487 -0.31020249
-0.53678585 0.80524803 -0.25186616
-0.56106259 0.80467779 -0.19417111
-0.57805591 0.80243283 -0.14816517
-0.58914529 0.79935015 -0.11809812
-0.59902769 0.79467883 -0.098241455
-0.60513223 0.79154333 -0.085288538
-0.61171868 0.78800536 -0.06962615
-0.61898953 0.78370635 -0.051539438
-0.62683642 0.77835488 -0.035210672
-0.63165212 0.77500399 -0.019606521
-0.63182026 0.77509703 -0.0052676571
-0.6295949 0.77687303 0.0088632588
-0.62972201 0.77665451 0.01606089
-0.63010315 0.77595163 0.029480379
-0.62666847 0.77678844 0.062340587
-0.62403364 0.77526615 0.097695476
-0.62226247 0.77235382 0.12751077
-0.61372137 0.77401731 0.15570252
-0.60701306 0.77491373 0.17619266
-0.59055934 0.78144963 0.20143521
-0.57075079 0.78682815 0.23482972
-0.54202756 0.79301055 0.27810142
-0.52164413 0.79263752 0.31561551
-0.49957924 0.79304894 0.34855984
-0.47021088 0.7912355 0.39095795
-0.44505238 0.79134558 0.4191665
-0.40608954 0.78866334 0.46162909
-0.3934158 0.77826951 0.4894084
-0.51965252 0.79085194 -0.32328698
-0.54301414 0.79486059 -0.27079935
-0.564619 0.79398067 -0.22538874
-0.58807601 0.79141443 -0.16682268
-0.59796711 0.79176861 -0.12465071
-0.60601612 0.78867668 -0.10360286
-0.611051 0.78699601 -0.085170158
-0.61638045 0.78419624 -0.071494109
-0.62256406 0.78051222 -0.056698021
-0.62866644 0.77655626 -0.041699868
-0.63566541 0.77136875 -0.030327203
-0.63727056 0.77048453 -0.015485883
-0.63844016 0.76965436 -0.0051315448
-0.63869669 0.76941097 0.0085606177
-0.63785677 0.7699245 0.018841468
-0.63663213 0.77024166 0.037779835
-0.63950306 0.76609226 0.064331009
-0.63827202 0.76302045 0.10202264
-0.63307091 0.76318859 0.1294774
-0.63011128 0.76081027 0.15533033
-0.6255317 0.76212995 0.16693721
-0.61159151 0.76829551 0.18888579
-0.59345825 0.77474234 0.21813208
-0.56988951 0.77870545 0.26238095
-0.54896894 0.77979457 0.30092113
-0.53025129 0.78330727 0.32444305
-0.50315287 0.78308596 0.3655319
-0.48301065 0.78060384 0.3966842
-0.45648034 0.78283913 0.42283401
-0.43353728 0.77629806 0.45760983
-0.55032426 0.78266484 -0.29082461
-0.57422163 0.78105573 -0.24540063
-0.59406525 0.7807289 -0.1937753
-0.61008024 0.7795769 -0.14164025
-0.61641075 0.77922096 -0.11336878
-0.6256982 0.77481892 -0.090318382
-0.62993991 0.77291735 -0.075990038
-0.63558869 0.76982731 -0.058248893
-0.63918137 0.7678642 -0.042798987
-0.64251761 0.76572824 -0.02883383
-0.64503823 0.76393452 -0.018158458
-0.64866571 0.761011 -0.0097497732
-0.65007727 0.75986549 -0.0019952766
-0.65206665 0.75805573 0.012672822
-0.65398535 0.75621609 0.020985573
-0.65431218 0.7550576 0.041995127
-0.65162165 0.75541671 0.068810089
-0.65054773 0.75213421 0.10527003
-0.64722388 0.75079406 0.13194519
-0.64489449 0.74948426 0.14961431
-0.64108502 0.75069946 0.15956287
-0.63337549 0.75385835 0.17473717
-0.62054836 0.75845086 0.19917837
-0.60385037 0.76225465 0.2330935
-0.58093119 0.76681921 0.27296018
-0.55949193 0.76886319 0.3095451
-0.53889042 0.77039821 0.34071059
-0.51582695 0.77115714 0.37314773
-0.48922177 0.77304001 0.40382076
-0.47206122 0.76974676 0.42970703
-0.58257214 0.77002354 -0.26014124
-0.60329886 0.76826474 -0.21400882
-0.61679314 0.76772667 -0.17367206
-0.63318223 0.7635613 -0.12670597
-0.63890958 0.76278026 -0.099803883
-0.64306564 0.76146391 -0.081481909
-0.64758298 0.7592236 -0.064929222
-0.65102847 0.75729711 -0.051604364
-0.6545468 0.75513842 -0.036530213
-0.65717963 0.75343483 -0.02123448
-0.66281316 0.74874321 -0.0078935588
-0.66514917 0.74670571 0.0026781147
-0.66727624 0.74475984 0.0086721987
-0.66728233 0.74462557 0.016341916
-0.6694253 0.74243236 0.025767331
-0.67010619 0.74124949 0.038818656
-0.66767228 0.74119998 0.069543619
-0.66177734 0.74229722 0.10509799
-0.65931764 0.73984014 0.13392836
-0.65620194 0.73986518 0.14831903
-0.65382751 0.74063551 0.15481807
-0.64841144 0.7427121 0.16715661
-0.64014713 0.74559246 0.18521214
-0.62379775 0.75049006 0.21826829
-0.60686085 0.75362422 0.25252812
-0.58395366 0.75784945 0.29096793
-0.56690795 0.75798265 0.3226107
-0.542643 0.75925937 0.35925447
-0.52129439 0.76397772 0.38025017
-0.50670971 0.76238313 0.40251365
-0.60667531 0.7569806 -0.24274563
-0.62535447 0.75653571 -0.19127336
-0.63779928 0.75474482 -0.15353287
-0.64985953 0.75122482 -0.11551564
-0.6554731 0.749835 -0.090013844
-0.65950196 0.74833055 -0.07112353
-0.6635852 0.74594593 -0.056739319
-0.66779129 0.74321634 -0.041039706
-0.66930543 0.7426214 -0.023317273
-0.67077653 0.7415481 -0.012855346
-0.67588871 0.73698977 -0.0045300185
-0.67615937 0.73675473 0.00098838149
-0.67614225 0.73672644 0.0081122806
-0.679263 0.73372891 0.015609708
-0.68114768 0.73172744 0.024754699
-0.6821057 0.72997449 0.043232455
-0.68074549 0.72862321 0.075457212
-0.67512545 0.72940464 0.11033811
-0.67524794 0.72525434 0.13433673
-0.67100062 0.72642521 0.14854151
-0.67019472 0.72652604 0.15165402
-0.66121312 0.73217605 0.16344857
-0.65559502 0.73358197 0.17903259
-0.64166608 0.73808942 0.20853932
-0.62880596 0.73825137 0.2441065
-0.60875334 0.7424007 0.2797509
-0.58771539 0.74648873 0.31200191
-0.56983692 0.74923857 0.33753141
-0.54368441 0.75613137 0.36424253
-0.53299204 0.74973349 0.39219789
-0.62234764 0.74873118 -0.22822145
-0.63749799 0.74944833 -0.17867155
-0.65343609 0.7446738 -0.13594929
-0.66268338 0.74156062 -0.10458766
-0.66939239 0.73814331 -0.08401366
-0.67625158 0.73387818 -0.064082828
-0.67909311 0.73226837 -0.051142744
-0.6823667 0.73017194 -0.034994606
-0.68621961 0.72710536 -0.020504542
-0.6899263 0.72378156 -0.011913998
-0.69575845 0.71826109 -0.0046036937
-0.69734446 0.71673596 0.00051509316
-0.69737449 0.71666546 0.0077099173
-0.69893594 0.71501071 0.015755485
-0.69464011 0.71887524 0.026334533
-0.6987951 0.71387345 0.045498491
-0.69748945 0.7127147 0.074473038
-0.69276356 0.71314035 0.10728231
-0.68572947 0.71498918 0.1362555
-0.68133012 0.71698206 0.14739736
-0.68291211 0.71508473 0.14928121
-0.67816042 0.71775414 0.15788426
-0.67017484 0.72154953 0.1738734
-0.65862073 0.72444416 0.20346841
-0.64811637 0.72558507 0.23123901
-0.6297054 0.73103295 0.26279637
-0.61281932 0.73492157 0.29041826
-0.59389982 0.73780826 0.32081455
-0.57208704 0.74251158 0.34841494
-0.55436089 0.74121113 0.37853674
-0.64553573 0.73360761 -0.21237585
-0.6554196 0.73778208 -0.16156345
-0.66801393 0.73361031 -0.12479302
-0.67734755 0.72881109 -0.1001733
-0.6844173 0.72502704 -0.076868427
-0.69020679 0.72137638 -0.05683922
-0.69490533 0.71790565 -0.041449357
-0.69882394 0.71475811 -0.027675797
-0.70477108 0.709238 -0.016708856
-0.70954259 0.70461958 -0.0077817539
-0.71278874 0.70136995 -0.0035228116
-0.71549524 0.69861497 0.0019193828
-0.71772809 0.69624491 0.010459782
-0.7177011 0.69618258 0.015327728
-0.71875621 0.69491176 0.02207171
-0.71719334 0.69556446 0.042705866
-0.71256565 0.6981386 0.069661274
-0.70287557 0.70301167 0.10835372
-0.69581161 0.70613512 0.13122271
-0.6915709 0.70774914 0.14429433
-0.68787178 0.71058669 0.14798299
-0.69075234 0.70673982 0.15290528
-0.68432294 0.70960578 0.16781465
-0.67584582 0.71098993 0.19423115
-0.66875761 0.70876923 0.22452046
-0.65669411 0.71231829 0.24770042
-0.63362832 0.72283563 0.27572413
-0.61260266 0.7291289 0.30510495
-0.59438371 0.73245087 0.33199958
-0.5800977 0.72820121 0.36497898
-0.65953427 0.7247541 -0.19936406
-0.67080179 0.72516021 -0.15545942
-0.68254776 0.72120602 -0.1182812
-0.69186393 0.71679616 -0.086761602
-0.69986844 0.71111512 -0.067077903
-0.70508162 0.70733681 -0.050344182
-0.71181983 0.70149802 -0.034828937
-0.71737615 0.69635541 -0.021461407
-0.72273211 0.69106234 -0.0095471744
-0.72566405 0.68803865 -0.0038084371
-0.72801077 0.685565 0.00097878444
-0.72940661 0.68406309 0.0048676062
-0.73066271 0.68267632 0.0092223573
-0.7309177 0.68233592 0.013304689
-0.72876056 0.68443408 0.021401652
-0.72655313 0.68556106 0.046114835
-0.71990628 0.69015204 0.073655365
-0.71192971 0.69416563 0.1062552
-0.70503804 0.69690069 0.1313423
-0.70070162 0.69947894 0.14052203
-0.69883162 0.70005726 0.14681348
-0.69660027 0.70098862 0.15284965
-0.69320091 0.70089779 0.16797256
-0.68596096 0.70080827 0.19576857
-0.68224425 0.69777911 0.21828215
-0.67315693 0.69883172 0.2418553
-0.65944603 0.70397162 0.26373263
-0.64428529 0.7077794 0.28973227
-0.61684008 0.7186079 0.32110902
-0.60521422 0.71152286 0.35700276
-0.67780427 0.71038283 -0.18957215
-0.68941295 0.71191406 -0.13374659
-0.69838572 0.70851708 -0.10129631
-0.70570296 0.70422359 -0.077797669
-0.71233252 0.69956878 -0.056443776
-0.71668826 0.69629605 -0.039111962
-0.72027863 0.69325836 -0.024321539
-0.72463387 0.68903799 -0.011506399
-0.72604487 0.6876225 -0.0058439419
-0.72761114 0.68598935 -0.00080495288
-0.72873295 0.68478848 0.0036087324
-0.7302679 0.68311195 0.0081765525
-0.73199004 0.68120662 0.012170529
-0.73377932 0.67925708 0.013331543
-0.73396001 0.67889393 0.020143009
-0.73079436 0.68124697 0.042920467
-0.72495683 0.68502825 0.071929774
-0.71809207 0.68803985 0.10461808
-0.7123319 0.69020929 0.1272572
-0.70681938 0.69341701 0.13992573
-0.70471758 0.69479341 0.14364976
-0.70273072 0.69618078 0.1466351
-0.69867678 0.69593194 0.16592012
-0.69237202 0.6949082 0.19422558
-0.68367583 0.6947443 0.22342272
-0.67940199 0.69209248 0.24376408
-0.6725239 0.6923641 0.26142602
-0.66542171 0.69044256 0.28373055
-0.64503215 0.69498196 0.31770049
-0.6351409 0.69244186 0.34222843
-0.69685142 0.69685012 -0.16969974
-0.70521614 0.69849273 -0.12156523
-0.71069455 0.69749073 -0.09176016
-0.71710183 0.69363756 -0.068058067
-0.72246871 0.68967461 -0.048866109
-0.72402139 0.6889985 -0.032773378
-0.72476287 0.68874493 -0.018686768
-0.72480227 0.68888709 -0.0098105007
-0.72588359 0.68781377 -0.0022860104
-0.72518777 0.6885511 0.0002654518
-0.72642555 0.68721016 0.006936841
-0.72823795 0.68522851 0.011462472
-0.73190917 0.68120424 0.016424136
-0.73245101 0.68061207 0.016814768
-0.73399178 0.6787583 0.023307633
-0.73118357 0.68067956 0.045231841
-0.72664456 0.68296656 0.074460451
-0.72150078 0.68434843 0.10537485
-0.71594195 0.68676376 0.12562909
-0.71150704 0.68945892 0.13566183
-0.70886879 0.6910168 0.14142424
-0.70508926 0.69319388 0.14943689
-0.70377653 0.69141893 0.16321296
-0.69936318 0.68804947 0.19359513
-0.69515252 0.68411583 0.22079064
-0.69034603 0.68290588 0.23887635
-0.68638131 0.68039926 0.25678306
-0.68152175 0.67704537 0.27773669
-0.67220947 0.67781731 0.2978223
-0.65549983 0.67627064 0.33612199
-0.71038956 0.68353355 -0.16771572
-0.718737 0.68543174 -0.11662101
-0.72323106 0.68505141 -0.087415062
-0.72644328 0.6842724 -0.063650912
-0.72906356 0.68288665 -0.04617529
-0.73118379 0.68140406 -0.032538945
-0.7341039 0.67877528 -0.018857033
-0.73058534 0.68271102 -0.012276804
-0.72808683 0.68545575 -0.0063235089
-0.72875662 0.68477226 -0.00086098092
-0.73118263 0.68213181 0.0082562821
-0.73290783 0.68012571 0.016587063
-0.73583864 0.67688998 0.019011898
-0.73625215 0.67640276 0.020299648
-0.73486001 0.67784389 0.022548214
-0.73441724 0.67727425 0.043942107
-0.73045883 0.67932196 0.070367405
-0.72409884 0.68172277 0.10457024
-0.71867733 0.68408242 0.12463602
-0.71665655 0.68488299 0.13167643
-0.7121804 0.68710243 0.14383784
-0.71355602 0.6852243 0.14596393
-0.71281049 0.68196872 0.16376773
-0.70784457 0.67969596 0.19227447
-0.70113492 0.67897437 0.21772375
-0.6946024 0.6767047 0.24412756
-0.68950911 0.67430675 0.26436261
-0.68569845 0.66938371 0.28590748
-0.68499638 0.66232064 0.30349847
-0.6776493 0.66189041 0.32045673
-0.72186009 0.67228526 -0.1641662
-0.72769016 0.67641511 -0.11370855
-0.73189218 0.67609175 -0.085051618
-0.73557903 0.67483202 -0.059373587
-0.73740695 0.67403887 -0.043618669
-0.73797878 0.67418704 -0.029311377
-0.7367797 0.67584698 -0.019660295
-0.73481484 0.67808418 -0.015779336
-0.73407137 0.67904615 -0.0059626317
-0.73396914 0.67917629 0.0029778982
-0.7361668 0.67671341 0.010835018
-0.73663368 0.67603519 0.018634504
-0.73681807 0.67579447 0.020024065
-0.73691988 0.67567936 0.020161731
-0.73584477 0.67671256 0.024343231
-0.73354298 0.67812573 0.045389368
-0.7309594 0.67814127 0.076307135
-0.72767852 0.67764519 0.10621193
-0.72433824 0.67818222 0.12410877
-0.72191524 0.67895009 0.1336606
-0.72066995 0.67930107 0.13850951
-0.7203389 0.67697878 0.15103509
-0.71995941 0.67345492 0.16768099
-0.71417648 0.67259494 0.19382467
-0.70712134 0.6703648 0.2249232
-0.70247661 0.66628191 0.25018999
-0.69772445 0.66390316 0.26909697
-0.69478635 0.6606151 0.28435827
-0.69134071 0.65831685 0.29776995
-0.6839384 0.65702618 0.31708809
-0.73398668 0.65861377 -0.16580549
-0.73927139 0.66421142 -0.11090984
-0.74055124 0.66691733 -0.082493325
-0.74276517 0.66705285 -0.057796132
-0.74333191 0.66769593 -0.04049463
-0.74403152 0.66744081 -0.030657199
-0.74340488 0.66839057 -0.024560915
-0.74101341 0.67132777 -0.01477005
-0.74011308 0.67245276 -0.0063170125
-0.7407924 0.6717256 0.0033687238
-0.73887275 0.67373935 0.011930764
-0.73706551 0.67563536 0.015852249
-0.73872995 0.6737424 0.018687985
-0.73809836 0.67439607 0.020018735
-0.73855574 0.67361053 0.028004847
-0.73742651 0.67350171 0.050966495
-0.73570421 0.67275395 0.078367306
-0.73290253 0.67192527 0.10663164
-0.7296558 0.67247446 0.12401818
-0.72721444 0.67325853 0.13372404
-0.72840254 0.67037065 0.14153773
-0.72658468 0.66950991 0.15437352
-0.72668045 0.66527227 0.17131352
-0.72394451 0.66217037 0.19348061
-0.71858145 0.66091631 0.21640318
-0.71038624 0.65985649 0.2448281
-0.70568166 0.65499195 0.27018317
-0.69624264 0.65724998 0.28856306
-0.69441852 0.65249695 0.30336552
-0.69013677 0.64735075 0.3234938
-0.74766166 0.64105857 -0.17333766
-0.75210384 0.64899843 -0.11463357
-0.75346485 0.65251661 -0.080701902
-0.75245595 0.6562527 -0.056057397
-0.75146813 0.65855416 -0.040025731
-0.75227263 0.65808074 -0.031868864
-0.75010966 0.66074025 -0.027528621
-0.74755683 0.66389953 -0.019905012
-0.74827467 0.6633317 -0.0087218237
-0.7465964 0.66527539 0.0015699001
-0.74445856 0.66758902 0.010312808
-0.74258564 0.66963021 0.012726086
-0.74484016 0.66698969 0.018381486
-0.74446998 0.66742835 0.017431325
-0.74494934 0.6666559 0.024907731
-0.74549465 0.66460159 0.050422797
-0.74302743 0.66486916 0.076545699
-0.73813965 0.66581981 0.10878343
-0.73576364 0.66584459 0.12370465
-0.73499064 0.6649034 0.13301212
-0.73516505 0.66193573 0.14619657
-0.73417724 0.66079776 0.15598107
-0.73289448 0.65850716 0.17097953
-0.72995622 0.65588558 0.19229671
-0.72460892 0.65307851 0.220069
-0.71943485 0.64980531 0.24528872
-0.71341086 0.64591663 0.271729
-0.70896273 0.64301929 0.28965159
-0.70507036 0.6417123 0.30179647
-0.69935491 0.63930409 0.31967639
-0.76250757 0.62404454 -0.17073552
-0.76464327 0.63396733 -0.11578464
-0.76382828 0.63960279 -0.086455921
-0.76396757 0.64252673 -0.059270268
-0.76211404 0.64598303 -0.043452445
-0.76281014 0.64572009 -0.034150551
-0.76175071 0.64722012 -0.029016753
-0.75842742 0.6513552 -0.022896748
-0.7553038 0.65526368 -0.012069507
-0.7541735 0.6566721 -0.0020208822
-0.75258164 0.65847385 0.0057506152
-0.75142546 0.65969437 0.012771544
-0.74948316 0.66178688 0.017694865
-0.75209557 0.65879525 0.018468188
-0.75243085 0.65802798 0.029102949
-0.74949469 0.66005611 0.05082965
-0.74696346 0.66029223 0.077844529
-0.74325362 0.66010082 0.1088162
-0.74150917 0.65931742 0.12435711
-0.74180213 0.65644995 0.13712427
-0.74149842 0.65453268 0.14753662
-0.74044397 0.65335652 0.15769586
-0.74149681 0.64869875 0.17138381
-0.73753466 0.64773269 0.19101042
-0.73196756 0.64440206 0.22129049
-0.72658437 0.63907723 0.2523003
-0.72733305 0.62991184 0.27239255
-0.72069991 0.63006955 0.28914357
-0.71383129 0.63304385 0.2995002
-0.71190152 0.62742795 0.31548438
-0.77470075 0.60629789 -0.1795595
-0.77728714 0.61541367 -0.13073149
-0.77585871 0.62350179 -0.096378279
-0.77554161 0.62752502 -0.068902551
-0.77302148 0.63244331 -0.049530214
-0.7699855 0.63686558 -0.039045595
-0.76910158 0.63831551 -0.032188055