# vtk DataFile Version 2.0
Grain example
ASCII
DATASET UNSTRUCTURED_GRID
POINTS 900 float
21.589989 11.692347 -4.5451714
21.102261 11.859798 -5.1366734
20.612969 11.92745 -5.7004555
20.121905 11.970544 -6.2586152
19.615496 12.007664 -6.7745577
19.111415 12.018691 -7.2424625
18.638501 12.023454 -7.6937155
18.165534 12.042087 -8.1222959
17.695108 12.066653 -8.5533185
17.235393 12.084839 -8.9608503
16.772264 12.109965 -9.3540846
16.285497 12.121176 -9.6890522
15.794837 12.131332 -10.037061
15.325345 12.132648 -10.363
14.857173 12.126282 -10.69331
14.381835 12.115714 -11.014922
13.921022 12.104446 -11.336228
13.429026 12.10168 -11.632085
12.912385 12.101519 -11.904306
12.388283 12.104716 -12.173551
11.913711 12.117767 -12.407902
11.415738 12.145216 -12.626283
10.891413 12.268137 -12.791448
10.277852 12.428419 -12.885705
9.6470707 12.633066 -12.948421
8.9896132 12.850856 -12.991205
8.332934 13.039798 -13.034292
7.5433433 13.203888 -13.059077
6.770116 13.363948 -13.079781
5.9986567 13.540575 -13.067491
21.891548 12.078936 -4.1826856
21.397568 12.312756 -4.7888257
20.905344 12.409428 -5.3704202
20.412757 12.460902 -5.9358017
19.897697 12.49435 -6.4664015
19.377998 12.513134 -6.9460184
18.886073 12.530772 -7.4042818
18.41085 12.555246 -7.8387803
17.939763 12.59087 -8.2674013
17.473228 12.633234 -8.6702281
16.977403 12.681756 -9.0335659
16.504231 12.685524 -9.3640076
16.023545 12.693769 -9.7032588
15.549906 12.692063 -10.030062
15.080729 12.698429 -10.359445
14.618643 12.691411 -10.679315
14.133349 12.691577 -10.983289
13.606474 12.689047 -11.266815
13.095654 12.681643 -11.545869
12.562856 12.684813 -11.810581
12.039301 12.709596 -12.051388
11.53253 12.737367 -12.271034
10.964021 12.79035 -12.428892
10.34478 12.914304 -12.539182
9.6978308 13.115765 -12.606059
9.0281888 13.324562 -12.645833
8.3187061 13.498609 -12.684289
7.5208437 13.669682 -12.687465
6.7264627 13.841314 -12.683008
5.9220517 14.009878 -12.678262
22.191966 12.455274 -3.8245187
21.704261 12.712196 -4.4209622
21.212123 12.872345 -5.0158768
20.716713 12.956694 -5.596328
20.200911 13.009256 -6.1249783
19.676036 13.03936 -6.6111901
19.160279 13.059971 -7.083757
18.669578 13.089612 -7.5334498
18.17818 13.150905 -7.9629502
17.698659 13.198205 -8.3680245
17.189188 13.251505 -8.7121175
16.714483 13.255243 -9.0436707
16.248721 13.254879 -9.3710988
15.78134 13.265553 -9.6968215
15.315391 13.276607 -10.027228
14.839973 13.279417 -10.331297
14.322407 13.278608 -10.620133
13.782034 13.27897 -10.899333
13.266923 13.274635 -11.167387
12.738469 13.273614 -11.431309
12.180802 13.302644 -11.678539
11.602506 13.310531 -11.870954
11.023198 13.358331 -12.02755
10.426894 13.429134 -12.16423
9.7500525 13.614182 -12.230315
9.0564613 13.813899 -12.264774
8.2785328 13.976531 -12.279884
7.4753539 14.148483 -12.276692
6.6869008 14.315778 -12.267436
5.8876837 14.465104 -12.244855
22.45411 12.749461 -3.4895288
22.006218 13.092766 -4.064738
21.520008 13.322183 -4.6564644
21.028818 13.425249 -5.2364826
20.508495 13.50372 -5.792791
19.97235 13.558336 -6.2778277
19.446873 13.595364 -6.7531201
18.937526 13.669484 -7.1942763
18.437751 13.742948 -7.6278846
17.933039 13.79946 -8.014538
17.414436 13.851743 -8.3646383
16.940092 13.85146 -8.7039315
16.473258 13.860079 -9.0332221
16.015245 13.867817 -9.3553528
15.535898 13.869467 -9.6724144
15.036439 13.87006 -9.9652946
14.50404 13.874953 -10.236434
13.963128 13.873833 -10.514955
13.436869 13.871102 -10.781479
12.893772 13.878206 -11.045727
12.28783 13.870639 -11.263724
11.676772 13.878735 -11.464091
11.090863 13.925147 -11.624554
10.474626 14.004389 -11.749299
9.7962532 14.154238 -11.812772
9.0446525 14.310515 -11.847547
8.2465635 14.465469 -11.850098
7.430994 14.629124 -11.855491
6.6394766 14.799618 -11.842625
5.8270284 14.919051 -11.791666
22.66137 12.934485 -3.186735
22.300897 13.462969 -3.7172812
21.816476 13.727659 -4.306016
21.33169 13.874499 -4.8858159
20.823328 13.985219 -5.4512854
20.271331 14.063492 -5.9488427
19.729112 14.143073 -6.4182589
19.20417 14.230554 -6.8642567
18.698944 14.314893 -7.2934033
18.172374 14.387324 -7.6585811
17.650927 14.455667 -8.0115316
17.172006 14.482164 -8.3518234
16.704783 14.497466 -8.6807951
16.242914 14.504006 -8.9775689
15.754841 14.500091 -9.2751586
15.229188 14.49254 -9.5541292
14.693849 14.490616 -9.8334153
14.146761 14.481529 -10.116169
13.605077 14.477652 -10.387788
13.002969 14.450903 -10.621797
12.393267 14.433627 -10.840975
11.759473 14.458588 -11.032139
11.130633 14.508233 -11.1884
10.489992 14.599123 -11.295913
9.8285871 14.687156 -11.378416
9.0460272 14.830573 -11.399368
8.2187641 14.972354 -11.413886
7.395572 15.135686 -11.421943
6.5984738 15.262458 -11.389587
5.7730306 15.378415 -11.334767
22.854891 13.099765 -2.8906596
22.583 13.80112 -3.3776656
22.12054 14.113385 -3.9465201
21.638472 14.321933 -4.5309381
21.133786 14.458257 -5.1013864
20.570795 14.600534 -5.5989616
20.025313 14.68937 -6.0720551
19.477323 14.774866 -6.539103
18.950829 14.864345 -6.9603667
18.420513 14.967617 -7.3124807
17.891768 15.069449 -7.6623851
17.40664 15.119717 -7.997222
16.925576 15.144908 -8.3053447
16.449915 15.154367 -8.5870946
15.94629 15.13323 -8.8508394
15.423911 15.126933 -9.1337717
14.890537 15.122666 -9.4153672
14.33744 15.112551 -9.6908787
13.735689 15.08678 -9.9253367
13.113158 15.067121 -10.146791
12.484075 15.052695 -10.36049
11.830159 15.071976 -10.556921
11.17704 15.119383 -10.70762
10.49366 15.191422 -10.816591
9.8109672 15.262195 -10.896795
9.0355573 15.365815 -10.949119
8.2147973 15.512591 -10.959733
7.3782132 15.644241 -10.962833
6.5459991 15.746721 -10.91141
5.7074088 15.859463 -10.840728
23.023816 13.234727 -2.6235003
22.822772 14.045342 -3.050185
22.407745 14.480431 -3.6077552
21.929989 14.776411 -4.1815283
21.434525 14.962994 -4.7434606
20.875056 15.110765 -5.2424315
20.322364 15.220411 -5.7250572
19.778144 15.314176 -6.1953383
19.214439 15.438527 -6.6147928
18.665101 15.551872 -6.9773528
18.134997 15.659702 -7.3216921
17.630013 15.722335 -7.6364559
17.139093 15.774448 -7.9222434
16.627186 15.793154 -8.1828258
16.126741 15.778031 -8.4431317
15.618518 15.761007 -8.7132678
15.075013 15.75213 -8.9825917
14.462192 15.728175 -9.2156164
13.842176 15.714169 -9.4283906
13.208496 15.696117 -9.6483144
12.563143 15.684703 -9.854358
11.893444 15.707707 -10.037822
11.230779 15.745629 -10.188672
10.49608 15.817848 -10.289215
9.7907155 15.884312 -10.377566
9.0326894 15.954379 -10.450039
8.2081135 16.081569 -10.479293
7.351185 16.178002 -10.433528
6.4958814 16.264078 -10.37766
5.644735 16.359352 -10.315163
23.165072 13.337417 -2.3697016
23.009887 14.202022 -2.7580512
22.671759 14.84174 -3.2764823
22.202743 15.227687 -3.8272491
21.723675 15.456188 -4.3802298
21.173707 15.613951 -4.8849196
20.619676 15.75573 -5.3755124
20.070442 15.884288 -5.8420092
19.49288 16.009912 -6.2507575
18.925817 16.123756 -6.6267763
18.363159 16.241465 -6.9695494
17.84673 16.318588 -7.2705104
17.317088 16.366659 -7.5436923
16.802713 16.393024 -7.8007371
16.297394 16.402607 -8.0498157
15.770327 16.401611 -8.2799277
15.184934 16.385403 -8.4928553
14.554022 16.370766 -8.7132209
13.934787 16.365392 -8.9152973
13.27939 16.357986 -9.1152755
12.623376 16.348888 -9.3144772
11.946521 16.357358 -9.5008527
11.240656 16.390029 -9.6469949
10.509216 16.451837 -9.7512241
9.7498755 16.513071 -9.8455766
8.9736906 16.584835 -9.908097
8.1899602 16.652106 -9.9141496
7.3159451 16.739624 -9.8594882
6.4595993 16.830585 -9.8024767
5.6089813 16.920048 -9.7404872
23.315938 13.434265 -2.1154907
23.171926 14.349671 -2.4888095
22.926314 15.183526 -2.921592
22.46605 15.639391 -3.4784919
22.002515 15.944906 -4.0104274
21.459194 16.140001 -4.520966
20.910336 16.322166 -5.0097861
20.361431 16.466494 -5.4711112
19.769355 16.599334 -5.8684955
19.188212 16.719069 -6.2373348
18.60339 16.837471 -6.5751172
18.036394 16.914388 -6.8859498
17.486237 16.96052 -7.161942
16.961049 16.989827 -7.412714
16.41273 17.004953 -7.6265188
15.846224 16.996676 -7.8312657
15.25944 17.003837 -8.0075537
14.623762 17.01587 -8.1961711
13.9846 17.022194 -8.3804761
13.331503 17.012733 -8.5772587
12.679809 16.984521 -8.7812323
11.952101 16.982826 -8.9595121
11.241067 17.013542 -9.1053157
10.506107 17.080536 -9.1995164
9.7017045 17.154681 -9.2695809
8.9048217 17.209545 -9.3186939
8.1269826 17.231704 -9.319009
7.2768707 17.302328 -9.2808667
6.4269057 17.394616 -9.2197228
5.5681673 17.444556 -9.1589391
23.443593 13.542088 -1.8809429
23.322951 14.52191 -2.2127902
23.14943 15.476819 -2.5929158
22.732351 16.05094 -3.1274136
22.281242 16.466834 -3.6648703
21.772901 16.726008 -4.1360504
21.213823 16.916523 -4.6275605
20.641296 17.061444 -5.0575632
20.038704 17.210193 -5.4633591
19.447446 17.336038 -5.811312
18.851326 17.457723 -6.1488972
18.233504 17.535548 -6.4487332
17.652771 17.590758 -6.7211169
17.078356 17.60573 -6.9595575
16.506646 17.60639 -7.1582482
15.918833 17.612307 -7.3480588
15.31921 17.61852 -7.5222068
14.674731 17.625723 -7.700144
14.035466 17.63145 -7.8813571
13.389842 17.625144 -8.0694482
12.700405 17.596411 -8.2517193
11.964779 17.600062 -8.4206044
11.219424 17.661008 -8.5317511
10.460893 17.732887 -8.615483
9.6605189 17.796845 -8.6724257
8.8399898 17.817348 -8.6982902
8.040454 17.833524 -8.707888
7.2415105 17.854127 -8.6946433
6.3806289 17.897563 -8.6429666
5.537912 17.931755 -8.5892577
23.539609 13.629963 -1.655255
23.465915 14.675146 -1.956237
23.317624 15.70796 -2.3033321
22.999102 16.455352 -2.7708076
22.54651 16.944643 -3.3080899
22.05894 17.277851 -3.7467159
21.519383 17.522196 -4.1918977
20.937687 17.692581 -4.6143992
20.318004 17.833714 -5.0054094
19.705984 17.964692 -5.3669688
19.056521 18.085694 -5.6833265
18.424128 18.17697 -5.981845
17.798812 18.219616 -6.2397531
17.190486 18.227275 -6.4596549
16.595162 18.22303 -6.6749565
15.982753 18.231168 -6.8544843
15.372333 18.234299 -7.0289009
14.731227 18.238203 -7.2019469
14.095221 18.23352 -7.3868455
13.406502 18.206131 -7.5640973
12.706956 18.187711 -7.7285371
11.959393 18.208943 -7.865726
11.195247 18.291156 -7.9665913
[...]
POINT_DATA 900
VECTORS normals float
0.77240395 -0.023534377 -0.63469542
0.75549446 -0.016689961 -0.65494242
0.73987726 -0.0053670221 -0.67272048
0.71861984 0.0070884519 -0.69536701
0.70355499 0.019901676 -0.71036209
0.68890444 0.038491951 -0.72382943
0.67582733 0.055366574 -0.73497753
0.6632597 0.071304676 -0.74498471
0.64827332 0.092656794 -0.75574891
0.63392953 0.10823679 -0.76577944
0.61843779 0.13406923 -0.77431269
0.60208958 0.16337383 -0.78153511
0.57999726 0.18515107 -0.79329835
0.56250594 0.21117192 -0.79937069
0.53581127 0.24291139 -0.80864104
0.51573586 0.27087736 -0.81279885
0.49567797 0.29497777 -0.8168791
0.47009303 0.32285991 -0.8214463
0.43878568 0.36062347 -0.82305397
0.40554461 0.40161602 -0.82112005
0.38370518 0.43103514 -0.81668785
0.36003961 0.46413228 -0.80929149
0.31749439 0.49580133 -0.80831822
0.29562349 0.52376805 -0.79892039
0.26174813 0.55287965 -0.79108281
0.23481684 0.57973924 -0.78023296
0.19375941 0.60401012 -0.77306472
0.15135282 0.6267825 -0.76435334
0.11298605 0.64560852 -0.75526405
0.074320297 0.65755649 -0.74973059
0.78262088 -0.024240793 -0.62202648
0.76389268 -0.015410685 -0.64515928
0.74651744 -0.0037467936 -0.6653553
0.72700569 0.012324096 -0.68652083
0.70788722 0.02797331 -0.70577133
0.68876391 0.048594215 -0.72335529
0.67344324 0.064047085 -0.73645921
0.65916157 0.083744228 -0.74732385
0.64356786 0.10437832 -0.75823847
0.62435437 0.13126489 -0.77003321
0.60454702 0.15733478 -0.78087686
0.59064531 0.18485758 -0.7854717
0.57441603 0.21302218 -0.79035927
0.55506016 0.23783045 -0.79708525
0.52653775 0.27389037 -0.80482425
0.50603041 0.29928851 -0.80892497
0.47618231 0.32647415 -0.81649558
0.44718987 0.35566772 -0.82068367
0.41663214 0.39403148 -0.81924163
0.37791091 0.4343457 -0.8176351
0.35291017 0.45582382 -0.8171163
0.33397864 0.48776797 -0.80656102
0.29752487 0.51505146 -0.80386625
0.27377275 0.53408375 -0.79987688
0.24293513 0.56475035 -0.78869485
0.21922476 0.58825374 -0.77839453
0.17682272 0.61633216 -0.76737761
0.13870951 0.63793815 -0.7574923
0.10202698 0.65822219 -0.74587803
0.063124765 0.67092689 -0.73883176
0.79690573 -0.028972612 -0.60340852
0.77138726 -0.013332752 -0.63622633
0.75487103 -0.0066150647 -0.6558399
0.73284034 0.013269236 -0.68027124
0.70893818 0.036957357 -0.70430165
0.6889841 0.05789644 -0.72246032
0.67240979 0.07686357 -0.73617733
0.65696512 0.097323982 -0.74761278
0.62798203 0.13145331 -0.76704537
0.60919824 0.16454821 -0.77575859
0.59243388 0.19217807 -0.78236161
0.57323123 0.21854648 -0.78971095
0.56136399 0.23786666 -0.79264742
0.5358554 0.27142348 -0.79949252
0.51291989 0.29713541 -0.8053718
0.48696258 0.3292618 -0.80898338
0.45669893 0.3576458 -0.81456465
0.42001781 0.39521233 -0.81694079
0.3912107 0.42115427 -0.81828068
0.36025631 0.44952039 -0.81740247
0.3306075 0.4808916 -0.81206031
0.30324685 0.51215614 -0.8035779
0.27434063 0.53062187 -0.80198357
0.25234068 0.55114583 -0.79533795
0.22538978 0.57660629 -0.78531817
0.20151691 0.60065504 -0.77369533
0.15710752 0.62945278 -0.76099042
0.11876336 0.65657433 -0.74485262
0.087268775 0.67106672 -0.73624291
0.053766814 0.6816746 -0.72967724
0.80589569 -0.028343404 -0.59137872
0.7807824 -0.014099505 -0.62464394
0.76261918 -0.0046166217 -0.64683126
0.74054613 0.014034255 -0.67185897
0.71445501 0.041174317 -0.69846883
0.68963099 0.066313376 -0.72111832
0.66825534 0.086227743 -0.73891785
0.64870559 0.11338064 -0.75254627
0.62085658 0.15641245 -0.76816161
0.59337154 0.18903446 -0.78241689
0.56749589 0.2239759 -0.79232771
0.55259925 0.24863161 -0.79549758
0.53427432 0.2737919 -0.79974305
0.51422255 0.30440962 -0.80181666
0.48844741 0.33255785 -0.80673689
0.46350292 0.35733387 -0.81084989
0.42983421 0.3906791 -0.81401007
0.40572687 0.41408584 -0.81481202
0.37831793 0.43921737 -0.81483965
0.3349384 0.46785697 -0.81787904
0.30574838 0.50964218 -0.80422806
0.27702538 0.53672977 -0.79698061
0.25231562 0.55591973 -0.79201646
0.22816269 0.57337821 -0.78687942
0.20398447 0.59726563 -0.77567009
0.17507459 0.62046327 -0.76444373
0.13691822 0.64668173 -0.75037067
0.10203081 0.66841448 -0.73675763
0.074965568 0.68332245 -0.72625794
0.038906243 0.69437056 -0.71856512
0.82000608 -0.031608864 -0.57148133
0.79182236 -0.018679277 -0.61046575
0.76817269 -0.0041291347 -0.64022939
0.74658274 0.016980003 -0.66507586
0.72021901 0.044547316 -0.69231504
0.68977935 0.070210733 -0.72060731
0.66109736 0.10119438 -0.74344467
0.63635222 0.13217964 -0.75998973
0.6103607 0.1752572 -0.77249254
0.58513016 0.20684478 -0.78411602
0.55669553 0.23976617 -0.79536298
0.53420092 0.26882581 -0.80147493
0.51388103 0.29097721 -0.80700592
0.49048868 0.3233029 -0.80925651
0.46486276 0.35529558 -0.81096712
0.43737631 0.38863104 -0.81096725
0.40911402 0.42270256 -0.80867067
0.37501547 0.44666934 -0.81231145
0.34581175 0.47153393 -0.81121513
0.30916862 0.50058421 -0.80859768
0.28114469 0.53598421 -0.79603932
0.2592917 0.56118702 -0.78602605
0.23028157 0.58090274 -0.78071916
0.20266662 0.59825245 -0.77525495
0.18114362 0.61700658 -0.76582627
0.15196637 0.63987936 -0.75329983
0.11426686 0.65867517 -0.74370028
0.08886214 0.67691804 -0.73067468
0.060464591 0.69369822 -0.71772335
0.02450233 0.70507451 -0.70870979
0.83876234 -0.039256555 -0.54308071
0.80490499 -0.022254424 -0.59298625
0.77493684 -0.0063400792 -0.63200688
0.75065976 0.016983671 -0.66047065
0.72418662 0.047094908 -0.68799404
0.69259022 0.081033813 -0.71676517
0.66479535 0.10843155 -0.73911416
0.63641344 0.14347679 -0.75788676
0.60004339 0.18801208 -0.7775599
0.57463806 0.22518156 -0.78681915
0.53957276 0.26308259 -0.79978046
0.51875605 0.29380831 -0.80285045
0.49338944 0.31357498 -0.81131843
0.46256239 0.34977679 -0.81467308
0.43037745 0.38207241 -0.81779944
0.40596039 0.41609003 -0.81367392
0.37320177 0.45811583 -0.80675295
0.34103492 0.48505633 -0.80524253
0.31409425 0.50460943 -0.80418538
0.28208464 0.5350651 -0.79632505
0.25455967 0.5655689 -0.78443049
0.23111729 0.58728638 -0.77568003
0.20992644 0.60177587 -0.77058205
0.18516886 0.61680236 -0.76502768
0.16377362 0.63246884 -0.75707421
0.13536255 0.6498267 -0.74793198
0.10076772 0.66595446 -0.73915528
0.072614065 0.68196874 -0.72776771
0.044819116 0.70015508 -0.7125827
0.012417713 0.71338093 -0.70066644
0.86125632 -0.042595863 -0.5063824
0.82344543 -0.026422953 -0.56677989
0.78459315 -0.0079043096 -0.61996057
0.75642395 0.019526622 -0.65379012
0.72737206 0.053696914 -0.68413926
0.69077614 0.092985599 -0.71706485
0.65521267 0.13009376 -0.74415857
0.62811345 0.16541944 -0.76033539
0.58891197 0.20671256 -0.78131467
0.55935959 0.2458513 -0.79162743
0.52817272 0.28434572 -0.80011317
0.50396153 0.31247383 -0.80522226
0.46540523 0.35626609 -0.81022987
0.43320012 0.38873897 -0.81315415
0.39622726 0.42458513 -0.81408318
0.37252893 0.44960101 -0.81183812
0.34131689 0.48421631 -0.80562854
0.3111612 0.52005298 -0.79543925
0.28317674 0.5425704 -0.79084025
0.25418572 0.56854434 -0.78239821
0.23412198 0.59155192 -0.77152655
0.21678411 0.6038796 -0.76702939
0.19439263 0.616909 -0.76264985
0.16706586 0.63071963 -0.75781379
0.14441945 0.6447377 -0.75063728
0.11503722 0.660029 -0.74238006
0.084872651 0.67525098 -0.73268871
0.051372123 0.69503002 -0.71714307
0.022494813 0.71120371 -0.70262598
-0.0063208335 0.7205008 -0.6934253
0.88254692 -0.057345371 -0.46671451
0.84484659 -0.035623504 -0.53382132
0.79842786 -0.0040109917 -0.60207713
0.76489052 0.020458927 -0.64383532
0.7324602 0.05784284 -0.67834819
0.69663677 0.10183332 -0.71015997
0.65867912 0.14158324 -0.73898309
0.62477414 0.18095548 -0.75954749
0.58592764 0.2272298 -0.77785308
0.54726487 0.26738539 -0.79309912
0.51336655 0.31644269 -0.79769594
0.48318467 0.34856076 -0.80314256
0.43966849 0.39367931 -0.80728448
0.39860713 0.43249323 -0.80874097
0.36393881 0.46731175 -0.8057098
0.32550753 0.50059665 -0.80215201
0.29413104 0.52895027 -0.79605184
0.27386937 0.55265923 -0.78712346
0.25903098 0.57181609 -0.77841462
0.2372553 0.59206727 -0.77017288
0.21940302 0.61041437 -0.7610891
0.19937449 0.62340722 -0.75605109
0.1767493 0.63406022 -0.75281294
0.14702205 0.64751608 -0.74773487
0.12499291 0.65926138 -0.7414521
0.094356639 0.67455158 -0.73217279
0.063142708 0.69059233 -0.72048264
0.035599103 0.70426356 -0.70904552
0.0072427839 0.71756112 -0.69645788
-0.026744476 0.72867024 -0.68434232
0.91028168 -0.060616925 -0.4095276
0.87281822 -0.039070592 -0.48647903
0.82200684 -0.0014814809 -0.56947569
0.77494786 0.028759031 -0.63137052
0.73401609 0.065535486 -0.67596263
0.69558842 0.11194706 -0.70966513
0.65207764 0.16010603 -0.74105385
0.6157447 0.19759657 -0.76276737
0.57550155 0.25313709 -0.77763718
0.53151023 0.29485894 -0.79407498
0.49099521 0.35435934 -0.79583488
0.45065755 0.39341244 -0.8013329
0.40750439 0.44992163 -0.79467647
0.37186056 0.47317178 -0.79864147
0.33103436 0.51110706 -0.79321234
0.29860995 0.539705 -0.78711537
0.26808719 0.56258725 -0.78206448
0.23809301 0.58440619 -0.77574552
0.22573464 0.60052019 -0.76708498
0.21760444 0.61199806 -0.76033327
0.20420066 0.62849485 -0.75053069
0.18633489 0.64098085 -0.74459577
0.15551993 0.65540539 -0.73909223
0.12834307 0.66696861 -0.73394886
0.10150519 0.6811922 -0.72503371
0.071664596 0.69439457 -0.71601702
0.046500794 0.70752788 -0.70515387
0.016446101 0.71992315 -0.69385891
-0.0096040569 0.72986823 -0.68352039
-0.043567162 0.74001638 -0.67117633
0.93247913 -0.070438664 -0.35428952
0.89321893 -0.044902352 -0.44737425
0.84734227 -0.005016815 -0.53102345
0.78970642 0.04300934 -0.61197546
0.74056442 0.081308928 -0.66704812
0.69926588 0.13030854 -0.70288471
0.65682967 0.17200898 -0.73415781
0.60637992 0.22309377 -0.76323821
0.55777001 0.28731296 -0.77868086
0.50483044 0.3439212 -0.79174771
0.46890943 0.39901628 -0.7879784
0.4201624 0.44403159 -0.79139087
0.3685754 0.49912275 -0.78423762
0.32183222 0.53227838 -0.78300942
0.28589145 0.56259668 -0.77572615
0.25877381 0.58226102 -0.77071929
0.23721602 0.59589648 -0.76722614
0.21902892 0.60899487 -0.76233299
0.20648975 0.61921081 -0.75758825
0.20175935 0.62925037 -0.75055788
0.18618536 0.64930872 -0.73738267
0.16621871 0.66293965 -0.72998792
0.13465172 0.67933109 -0.72137243
0.10081616 0.69394241 -0.71293761
0.074678124 0.7073529 -0.70290473
0.049619038 0.71746907 -0.6948209
0.026884827 0.72810015 -0.68494334
0.0019374228 0.73730111 -0.67556149
-0.025108391 0.74901256 -0.66207987
-0.056171692 0.75837328 -0.64939565
0.95471816 -0.086896887 -0.28453851
0.91468978 -0.046924391 -0.40142335
0.87480749 -0.011997227 -0.48432212
0.81621377 0.047580919 -0.57578741
0.75308676 0.10655516 -0.64923519
0.70333757 0.15716225 -0.69326495
0.65239504 0.21007444 -0.72818229
0.5936087 0.26915512 -0.75840902
0.540009 0.32464314 -0.77652889
0.48722399 0.38392605 -0.78435551
0.43372942 0.44160146 -0.78540877
0.37375216 0.49556109 -0.78404625
0.33280094 0.53616961 -0.77573558
0.29008624 0.56479676 -0.77256365
0.26017633 0.58611018 -0.76732206
0.23577379 0.60186508 -0.76300009
0.21737335 0.61554389 -0.75753188
0.20332843 0.6239004 -0.75458985
0.18897293 0.63493807 -0.7490947
0.18011219 0.64842809 -0.7396625
0.16278573 0.66874075 -0.72545615
0.14176799 0.6863139 -0.7133548
0.11113683 0.70488268 -0.70056336
0.080678708 0.72028934 -0.68896605
0.054907989 0.73056485 -0.68063214
0.035250216 0.74169953 -0.66980537
0.010378726 0.75075067 -0.66050414
-0.012035668 0.75718272 -0.65309224
-0.039237491 0.76610415 -0.64151761
-0.061002982 0.77391376 -0.63034603
0.96547229 -0.087238486 -0.24546426
0.94189807 -0.041414698 -0.33333593
0.90713501 -0.0044779457 -0.42081591
0.84476661 0.069450131 -0.53060913
0.77819577 0.13131427 -0.61413998
0.71460762 0.189919 -0.67325086
0.65307039 0.24942544 -0.71504267
0.58697735 0.31476157 -0.74591068
0.51995706 0.37057032 -0.76962478
0.46843309 0.42717059 -0.77336649
0.40784489 0.47619697 -0.77903722
0.34672663 0.53512419 -0.77033937
0.30028472 0.56231592 -0.77047381
0.26406872 0.58627533 -0.76586484
0.24023462 0.60527902 -0.75889699
0.21968169 0.61977342 -0.75340617
0.20542024 0.62923496 -0.74957715
0.18759092 0.63836292 -0.74652691
0.16995508 0.65067819 -0.74008997
0.15421944 0.66942351 -0.726697
0.13583676 0.68967182 -0.71126729
0.11655358 0.7077397 -0.69679249
0.088928126 0.72481573 -0.68317929
0.057924628 0.74367679 -0.6660252
0.039250515 0.75152 -0.65854164
0.017167675 0.76291612 -0.64626949
-0.0079360013 0.77192339 -0.63566603
-0.029004307 0.77536396 -0.63084823
-0.047419061 0.78276873 -0.62050346
-0.065457876 0.7876046 -0.61269427
0.97473692 -0.084091824 -0.20692149
0.96198599 -0.052593035 -0.26798681
0.92981042 -0.010493294 -0.3678892
0.88354814 0.07686265 -0.46199005
0.80085361 0.16510703 -0.57565021
0.72664896 0.22587093 -0.64881708
0.65830529 0.28353046 -0.69731242
0.57816483 0.36206403 -0.73118744
0.49790754 0.42170489 -0.75779487
0.43431153 0.47525489 -0.76518382
0.37127199 0.52297338 -0.76723918
0.31985961 0.56095581 -0.76355642
0.28070199 0.58213091 -0.7631055
0.24899839 0.60322025 -0.75771045
0.21912216 0.621557 -0.75209865
0.19462105 0.63838052 -0.74470998
0.18411327 0.64631874 -0.74052305
0.16744324 0.65821262 -0.73397474
0.1483958 0.6723725 -0.72518543
0.13045701 0.69003501 -0.7119218
0.10942591 0.7091296 -0.69653512
0.087852633 0.72857899 -0.67930447
0.061361472 0.7489884 -0.65973567
0.040397398 0.76454713 -0.64330066
0.026098301 0.76914516 -0.638541
0.0057928685 0.77923685 -0.62670279
-0.018644379 0.78750347 -0.61602814
-0.03804741 0.79274406 -0.60836604
-0.056288345 0.79682572 -0.60158158
-0.072872779 0.80195699 -0.59292035
0.98641202 -0.085929542 -0.1400266
0.98157894 -0.044099333 -0.18589789
0.96442879 0.0022947134 -0.26433284
0.92226511 0.090191485 -0.37588904
0.83144041 0.20145181 -0.51780692
0.75604664 0.27380605 -0.59449451
0.67114041 0.33810085 -0.65974114
0.57695729 0.40377625 -0.70998946
0.48589181 0.46894435 -0.73756379
0.4268242 0.50745222 -0.74854081
0.3533584 0.55155943 -0.7555925
0.30157466 0.58453078 -0.75324398
0.25901895 0.61015698 -0.74874404
0.22517658 0.62612576 -0.74649986
0.19921006 0.64042237 -0.74173751
0.17696337 0.65427871 -0.73525732
0.16107934 0.66625526 -0.72811907
0.14243337 0.67839797 -0.72075581
0.12613488 0.69122212 -0.71154899
0.10536672 0.71084218 -0.69541444
0.085867232 0.73095079 -0.67700647
0.05842277 0.75243447 -0.65607099
0.038614504 0.770166 -0.63667359
0.018934497 0.78426091 -0.62014217
0.006202945 0.79089437 -0.61192125
-0.0071634058 0.79951657 -0.60060132
-0.028738005 0.80368771 -0.59435696
-0.047563284 0.80544557 -0.59075813
-0.067317822 0.81084907 -0.58137088
-0.080651329 0.81324851 -0.57630046
0.9913588 -0.099687347 -0.085265203
0.98786072 -0.039093954 -0.1503425
0.98137794 0.013536941 -0.19160924
0.95161887 0.096295799 -0.29180239
0.87368784 0.22657916 -0.43050139
0.77937397 0.33532671 -0.52927517
0.6935583 0.39486626 -0.60254255
0.5917747 0.46716781 -0.65692994
0.49176541 0.52025832 -0.69821061
0.39955717 0.56669102 -0.72056599
0.35062876 0.58980271 -0.727456
0.28787764 0.62150232 -0.72860231
0.24767884 0.63429913 -0.73233859
0.21162473 0.65527288 -0.72514304
0.18379194 0.6681472 -0.72097146
0.15805026 0.6806684 -0.71533953
0.14152113 0.6878691 -0.7119044
0.12123817 0.69785032 -0.7059081
0.10117743 0.71447922 -0.69230237
0.085503989 0.73295864 -0.67487829
0.060616127 0.75033276 -0.65827535
0.037326917 0.77548751 -0.63025854
0.013059707 0.79290532 -0.60920489
0.0010402244 0.79886372 -0.60151117
-0.0080017909 0.81163011 -0.58411688
-0.022382216 0.81708213 -0.57608666
-0.037422595 0.81849482 -0.5732938
-0.055579812 0.82281716 -0.56558183
-0.077018765 0.82658523 -0.55751678
-0.08959923 0.8262681 -0.55610521
0.99354179 -0.10408014 -0.045188865
0.99844477 -0.037485655 -0.041265726
0.99550952 0.01690512 -0.093139786
0.96738241 0.11958328 -0.22331841
0.91785194 0.26717553 -0.29353885
0.82097104 0.37852459 -0.42746425
0.7255754 0.45665112 -0.51479131
0.61199726 0.53314282 -0.58413876
0.49885379 0.58171726 -0.64245616
0.40854077 0.61746213 -0.6721867
0.33747775 0.64433965 -0.68624718
0.27713425 0.66088662 -0.69744211
0.22804794 0.6805101 -0.69634772
0.1840863 0.69946886 -0.69054728
0.15899173 0.70257075 -0.69362524
0.14006497 0.71155898 -0.68852424
0.11559149 0.72242015 -0.68172409
0.091982352 0.72688421 -0.68057226
0.077972995 0.73941933 -0.66871464
0.06045686 0.75334737 -0.65483792
0.036404082 0.77899087 -0.6259776
0.013918591 0.80517792 -0.59286996
-0.0031698296 0.81678425 -0.57693453
-0.013686286 0.8210987 -0.57062213
-0.024431888 0.8278497 -0.56041766
-0.037618963 0.83568097 -0.54792529
-0.049594121 0.83726717 -0.54454027
-0.06780122 0.84392465 -0.53215992
-0.0851105 0.84539104 -0.52732362
-0.09968059 0.84663062 -0.52276225
0.99489166 -0.10091685 0.0025243354
0.99887162 -0.046612834 0.0090955054
0.99869698 0.024555863 -0.044736376
0.98544049 0.11915692 -0.12127933
0.93178041 0.2846723 -0.22527083
0.86824084 0.38972558 -0.30703716
0.76582694 0.52537594 -0.3707954
0.64746361 0.60417615 -0.46450195
0.52459621 0.65829542 -0.53985736
0.41778363 0.69411442 -0.58622692
0.33330897 0.71322642 -0.61661431
0.26258358 0.72670211 -0.6347865
0.20638436 0.73442142 -0.64655292
0.16646317 0.73948543 -0.65226629
0.13881393 0.74683759 -0.65035706
0.11278626 0.75505181 -0.64589165
0.082857655 0.75817139 -0.64676947
0.058424525 0.76176582 -0.64521268
0.047789889 0.76875914 -0.63775036
0.02834481 0.78272758 -0.62171867
0.011491324 0.80071102 -0.59894058
-0.0040384701 0.82719675 -0.56189789
-0.017098901 0.8391827 -0.54358074
-0.027902347 0.84151748 -0.53950884
-0.0331493 0.84748178 -0.5297884
-0.047559087 0.85299023 -0.51975553
-0.058293565 0.8565613 -0.51274224
-0.075695941 0.86104946 -0.50285579
-0.09384138 0.86233221 -0.49757105
-0.11116733 0.86684951 -0.48601827
0.9927241 -0.098020497 0.0699346
0.9972945 -0.043372352 0.059350814
0.99737064 0.0095741838 0.071834144
0.99079409 0.12513048 0.05166651
0.95230839 0.28906566 -0.09772292
0.87396374 0.43090909 -0.2247326
0.78663239 0.54605648 -0.2881524
0.6662465 0.66359844 -0.34022452
0.55607065 0.73670247 -0.38477903
0.42910543 0.78212651 -0.4518259
0.34317234 0.7810829 -0.52167255
0.26079594 0.79669821 -0.54521321
0.18980919 0.79491549 -0.57626542
0.1461509 0.79268623 -0.59185171
0.10355589 0.80097625 -0.58967214
0.089658352 0.78925711 -0.60748217
0.057331936 0.79038425 -0.60992277
0.024643567 0.79255159 -0.60930671
0.010521855 0.80140825 -0.59802517
-0.0027897252 0.80767746 -0.58961795
-0.02059671 0.82916805 -0.55861983
-0.024640445 0.84764861 -0.52998555
-0.035760077 0.85937966 -0.51008609
-0.040910787 0.86104885 -0.50687393
-0.045230315 0.86299969 -0.50317567
-0.056640622 0.86830285 -0.49279001
-0.06932094 0.87466836 -0.47973937
-0.08819321 0.87965135 -0.4673708
-0.10727976 0.87983275 -0.4630177
-0.12239467 0.8810699 -0.45687566
0.9872286 -0.095849139 0.12725029
0.98969306 -0.048119275 0.1348784
0.9864237 0.004820103 0.16414948
0.98644658 0.12210546 0.1096057
0.95855922 0.28467317 0.011198894
0.89777414 0.43597367 -0.062678161
0.80252704 0.58394993 -0.12228175
0.67923612 0.70018931 -0.21993914
0.54662854 0.79885076 -0.25106713
0.44357412 0.8385168 -0.31643574
0.33505656 0.86528051 -0.37286291
0.25540557 0.86769362 -0.42646895
0.18404049 0.86179195 -0.47269834
0.12726386 0.85023631 -0.5107858
0.091097174 0.84451895 -0.52772061
0.060666143 0.84102237 -0.53758813
0.026114239 0.8362377 -0.54774498
-0.0088646941 0.83332778 -0.55270809
-0.02704233 0.83025178 -0.55673215
-0.034747786 0.83485117 -0.54937793
-0.045202598 0.85695621 -0.51340314
-0.045002676 0.87335156 -0.48500702
-0.048014116 0.88186668 -0.46904777
-0.052430996 0.88329179 -0.46588262
-0.059139632 0.88394316 -0.4638394
-0.066326631 0.88752543 -0.45595986
-0.08099897 0.8927366 -0.44323868
-0.10362531 0.89321197 -0.4375319
-0.12128992 0.89572184 -0.42775125
-0.13811299 0.89546806 -0.4231569
0.9801534 -0.10822519 0.16609223
0.97994305 -0.034347859 0.1962953
0.96872126 0.015775969 0.24764943
0.97251324 0.089337179 0.2150276
0.95192251 0.25917669 0.16331255
0.89138636 0.44427975 0.089698742
0.79917607 0.5968255 0.071532726
0.68882688 0.72492171 0.0024565212
0.56040337 0.82331434 -0.090008686
0.44755281 0.88327451 -0.1397234
0.34789714 0.90868328 -0.23078622