# vtk DataFile Version 2.0
Grain example
ASCII
DATASET UNSTRUCTURED_GRID
POINTS 900 float
2.3566508 8.9195373 -17.361569
1.940704 8.872479 -17.379193
1.5213238 8.8405998 -17.374988
1.1142909 8.8093572 -17.373544
0.69660875 8.7875459 -17.369514
0.27585809 8.7606975 -17.374657
-0.1584404 8.7418719 -17.370121
-0.63197392 8.7386787 -17.343391
-1.1235879 8.7279842 -17.299312
-1.6502516 8.7055335 -17.236862
-2.1779058 8.6672691 -17.165119
-2.7091759 8.6257863 -17.094706
-3.2600418 8.5693274 -17.01519
-3.8520743 8.4914458 -16.886103
-4.424634 8.3727764 -16.727916
-4.9610394 8.2325092 -16.567964
-5.5359718 8.0819754 -16.374818
-6.028755 7.9057784 -16.224929
-6.2733194 7.547677 -16.2686
-6.5103717 7.105008 -16.375378
-6.7432095 6.6424837 -16.486668
-6.9692565 6.189954 -16.595834
-7.1147474 5.7616076 -16.670983
-7.2912965 5.332175 -16.710431
-7.4647964 4.9111825 -16.749295
-7.63748 4.497938 -16.78025
-7.8092146 4.0915714 -16.786626
-7.9946568 3.667333 -16.772717
-8.1647955 3.2321531 -16.783953
-8.3179068 2.7745209 -16.810218
2.1465837 9.7983548 -16.604296
1.7029549 9.7615405 -16.627075
1.2688213 9.7247057 -16.629051
0.83017118 9.6857358 -16.63286
0.39628342 9.6474441 -16.642853
-0.040189793 9.6221521 -16.638693
-0.51200307 9.6194452 -16.611234
-1.0085509 9.5962115 -16.57647
-1.5321522 9.5653919 -16.528387
-2.0909541 9.5363871 -16.446743
-2.6188676 9.4957849 -16.374899
-3.1679205 9.444714 -16.295071
-3.7820607 9.3624478 -16.159
-4.4100578 9.2386215 -16.008767
-4.989526 9.107424 -15.860787
-5.5716167 8.9662113 -15.688261
-6.112652 8.777371 -15.534128
-6.6075483 8.5378179 -15.39581
-6.9338247 8.2394168 -15.357882
-7.1815922 7.8045665 -15.457818
-7.4198918 7.3512872 -15.564167
-7.6522342 6.8968963 -15.667731
-7.9337856 6.4070682 -15.736431
-8.1167027 5.9819144 -15.770883
-8.2897502 5.5465767 -15.804073
-8.4450376 5.0472108 -15.852218
-8.5931684 4.5661281 -15.890583
-8.7511902 4.0753998 -15.924237
-8.9118843 3.5922506 -15.95567
-9.0522468 3.0826729 -16.000274
2.0099513 10.614102 -15.832866
1.542248 10.590408 -15.851183
1.0712311 10.570346 -15.863065
0.5792656 10.54824 -15.884189
0.12575743 10.516549 -15.895369
-0.35900805 10.499503 -15.880667
-0.86891954 10.463209 -15.850702
-1.3936623 10.419829 -15.810228
-1.9531419 10.376358 -15.744065
-2.5144884 10.331562 -15.670358
-3.0538345 10.287711 -15.595095
-3.669612 10.192087 -15.458516
-4.2891777 10.052415 -15.311274
-4.9017135 9.90918 -15.168796
-5.4897958 9.7432876 -15.029723
-6.0578383 9.5516719 -14.912282
-6.5794806 9.3072591 -14.769026
-7.0611082 9.0568137 -14.636113
-7.5112711 8.79281 -14.524955
-7.7777285 8.4146543 -14.58901
-8.0370262 7.979875 -14.69001
-8.293722 7.5029611 -14.794175
-8.5511925 6.9533339 -14.904303
-8.802098 6.393687 -14.960958
-8.9618572 5.9067381 -14.999879
-9.1232866 5.4113797 -15.042902
-9.2691246 4.8969886 -15.10605
-9.4266671 4.3465467 -15.166977
-9.5735602 3.8101872 -15.216156
-9.7248176 3.253166 -15.261243
1.8900973 11.401641 -15.076042
1.4107119 11.38524 -15.083771
0.91868621 11.368907 -15.097197
0.41630017 11.346874 -15.114757
-0.11090075 11.335116 -15.111393
-0.64842474 11.31085 -15.094984
-1.2037417 11.269439 -15.068458
-1.7805351 11.213093 -15.017156
-2.338093 11.143039 -14.964178
-2.8982222 11.068158 -14.903644
-3.4857908 10.951504 -14.801985
-4.1040503 10.803802 -14.661669
-4.7240275 10.660084 -14.514234
-5.347248 10.492617 -14.374307
-5.9334171 10.305451 -14.248917
-6.4952476 10.081788 -14.117426
-7.0288013 9.8255191 -14.00322
-7.4963469 9.550463 -13.894725
-7.9287152 9.2197156 -13.806519
-8.2594484 8.8265703 -13.827875
-8.5263087 8.3558306 -13.937191
-8.7846703 7.8731753 -14.03744
-9.0626328 7.3312955 -14.116199
-9.349386 6.7394415 -14.194255
-9.5747012 6.1911156 -14.269366
-9.7213944 5.6525491 -14.343041
-9.8724253 5.102019 -14.405159
-10.036064 4.5303256 -14.470979
-10.180586 3.9632352 -14.536885
-10.31574 3.355307 -14.611293
1.7962222 12.147231 -14.336666
1.3212271 12.122872 -14.349939
0.81111777 12.097313 -14.354119
0.26566478 12.079913 -14.350184
-0.29480758 12.043898 -14.343012
-0.84018315 11.998802 -14.328195
-1.4165006 11.95016 -14.293925
-2.0208227 11.894791 -14.246844
-2.6384861 11.832059 -14.188557
-3.2847548 11.7335 -14.090227
-3.9189794 11.589642 -13.969853
-4.5407123 11.429432 -13.842329
-5.1701621 11.247851 -13.716288
-5.7887037 11.053689 -13.592424
-6.3677335 10.816078 -13.471511
-6.8959076 10.560453 -13.379733
-7.404089 10.274091 -13.296746
-7.8443381 9.929666 -13.235603
-8.2703679 9.5812271 -13.155288
-8.6971293 9.1762232 -13.107216
-8.9730821 8.6558709 -13.216
-9.2191358 8.1436231 -13.31621
-9.4684251 7.5788059 -13.437766
-9.7378357 6.9648274 -13.54727
-9.9925711 6.379237 -13.632153
-10.209784 5.8063781 -13.709592
-10.373614 5.2695566 -13.77462
-10.529387 4.689108 -13.85261
-10.684661 4.0690545 -13.934945
-10.840306 3.414808 -14.018391
1.7560797 12.828328 -13.641455
1.2721751 12.802578 -13.658611
0.73370492 12.785859 -13.651594
0.15305739 12.757919 -13.629467
-0.45145459 12.718625 -13.6005
-1.0456869 12.67569 -13.558299
-1.6418538 12.619946 -13.515777
-2.2739646 12.552519 -13.442897
-2.9333411 12.455929 -13.346521
-3.5999349 12.330806 -13.230073
-4.2571385 12.160227 -13.138213
-4.9135033 11.968935 -13.052309
-5.5667582 11.770886 -12.960241
-6.1958657 11.542497 -12.842077
-6.7608953 11.289281 -12.742327
-7.2618277 10.9917 -12.667425
-7.7143087 10.646225 -12.632352
-8.1480781 10.262117 -12.597648
-8.5794552 9.8632942 -12.531568
-8.9825263 9.4502733 -12.455553
-9.3326758 8.8924448 -12.550867
-9.574793 8.356883 -12.690516
-9.817993 7.7941757 -12.817789
-10.081858 7.1657798 -12.91932
-10.338636 6.5513875 -13.014832
-10.592646 5.9423927 -13.10134
-10.814112 5.3625404 -13.180041
-10.999058 4.7878985 -13.259312
-11.192714 4.1450195 -13.336144
-11.359743 3.4577197 -13.425765
1.7500874 13.531565 -12.924667
1.2028274 13.501907 -12.93693
0.61904684 13.460278 -12.931464
0.018781041 13.420593 -12.90468
-0.61100241 13.384731 -12.858489
-1.2462302 13.339573 -12.797353
-1.8975406 13.267289 -12.716138
-2.556277 13.151133 -12.638308
-3.2287443 13.011078 -12.539642
-3.8877976 12.838312 -12.46907
-4.556189 12.650161 -12.38061
-5.2372676 12.457064 -12.285006
-5.8967079 12.228686 -12.168104
-6.5315978 11.994563 -12.056139
-7.0496332 11.663899 -12.023042
-7.5193557 11.318152 -11.999837
-7.9855758 10.954744 -11.977542
-8.4367638 10.543781 -11.927516
-8.8688531 10.103508 -11.895081
-9.2369565 9.6763122 -11.870175
-9.6497036 9.1240053 -11.919815
-9.9105694 8.5712889 -12.058041
-10.15579 7.9893285 -12.190629
-10.418591 7.3474046 -12.304879
-10.676626 6.7205844 -12.410129
-10.945904 6.0927844 -12.499692
-11.207269 5.4744735 -12.58864
-11.449221 4.8136576 -12.67728
-11.665023 4.1472918 -12.75776
-11.863399 3.4875612 -12.839277
1.7093163 14.25199 -12.179691
1.1263213 14.206742 -12.181799
0.50349992 14.153498 -12.168038
-0.12502201 14.081911 -12.16753
-0.78018876 14.007307 -12.137418
-1.4689384 13.922545 -12.071899
-2.1369305 13.816818 -11.98268
-2.8295192 13.671678 -11.880203
-3.5066674 13.507687 -11.797938
-4.1882056 13.326094 -11.711878
-4.8678341 13.137309 -11.616022
-5.5522806 12.916926 -11.494598
-6.1887708 12.655325 -11.405582
-6.735942 12.311827 -11.357549
-7.2472878 11.958873 -11.335888
-7.7368857 11.575289 -11.307776
-8.2086855 11.172157 -11.278091
-8.6593258 10.763641 -11.265234
-9.0846194 10.329563 -11.265437
-9.4704629 9.9089284 -11.257396
-9.8600416 9.3842262 -11.286781
-10.223787 8.7681277 -11.407575
-10.476183 8.1850891 -11.56395
-10.747958 7.533123 -11.689571
-11.019211 6.8910854 -11.797287
-11.29591 6.245317 -11.896778
-11.571782 5.5750431 -12.010139
-11.876843 4.8320152 -12.103002
-12.120333 4.1454482 -12.18167
-12.333824 3.4658804 -12.264009
1.6464082 14.906966 -11.479899
1.0271721 14.859827 -11.460961
0.40473996 14.790349 -11.466171
-0.25647997 14.703881 -11.450076
-0.96136252 14.601213 -11.402545
-1.6844562 14.488766 -11.329247
-2.3901792 14.325143 -11.243356
-3.0769308 14.161932 -11.161356
-3.7784807 13.995963 -11.065103
-4.4930139 13.814275 -10.948439
-5.1524706 13.560386 -10.856023
-5.7973121 13.299373 -10.770823
-6.3763534 12.960155 -10.706551
-6.9243452 12.596976 -10.671513
-7.4476376 12.203866 -10.630827
-7.9383572 11.790927 -10.61701
-8.4133015 11.372116 -10.610004
-8.8516784 10.966029 -10.604247
-9.2532509 10.525312 -10.609678
-9.6275063 10.07884 -10.616735
-10.012721 9.601832 -10.63001
-10.481636 8.9759469 -10.760058
-10.780156 8.3902384 -10.913195
-11.065296 7.7361867 -11.044638
-11.355336 7.0808452 -11.160607
-11.658403 6.3621849 -11.305459
-11.949334 5.6515885 -11.427005
-12.256835 4.8941752 -11.521691
-12.560025 4.1332677 -11.618242
-12.794476 3.4383612 -11.69826
1.5695946 15.529247 -10.795715
0.93577996 15.4667 -10.790169
0.27200184 15.397384 -10.752032
-0.42257987 15.297816 -10.708416
-1.1440189 15.179721 -10.654507
-1.88986 15.003813 -10.585534
-2.6250954 14.822893 -10.51545
-3.3313408 14.650816 -10.429005
-4.0363207 14.440393 -10.344613
-4.7184431 14.192051 -10.250524
-5.3785284 13.936205 -10.147879
-5.9812932 13.596415 -10.085971
-6.5415352 13.219077 -10.036535
-7.1042273 12.826839 -9.9764842
-7.6352839 12.420412 -9.9370184
-8.1221674 12.004103 -9.9325234
-8.6027992 11.572544 -9.9289555
-9.0118763 11.14121 -9.9469046
-9.3986947 10.701193 -9.961253
-9.7762394 10.250865 -9.9725296
-10.148865 9.7998973 -9.9722347
-10.613684 9.1823204 -10.096565
-11.045048 8.5675908 -10.244833
-11.361119 7.9388554 -10.393081
-11.683886 7.2331899 -10.536652
-12.004218 6.4889748 -10.692061
-12.333601 5.7312791 -10.820332
-12.638709 4.9526837 -10.926425
-12.946061 4.1867849 -11.029549
-13.242757 3.4239812 -11.137461
1.5062342 16.137739 -10.124847
0.83231435 16.057114 -10.10675
0.12691359 15.963798 -10.052061
-0.59752338 15.854657 -9.9838087
-1.3379657 15.687748 -9.9215078
-2.0872011 15.508178 -9.8495895
-2.8236512 15.29394 -9.7955399
-3.5394926 15.077439 -9.7278663
-4.2482951 14.824373 -9.6515487
-4.9143838 14.556111 -9.5690426
-5.5336927 14.215524 -9.5083112
-6.1387241 13.836635 -9.4303482
-6.7193636 13.443644 -9.3514502
[...]
POINT_DATA 900
VECTORS normals float
0.056854803 0.64272195 -0.76398692
0.021579283 0.64846081 -0.76094212
0.016336662 0.65771673 -0.75308819
-0.0057988088 0.65864723 -0.75242954
-0.013279591 0.66490873 -0.74680656
-0.032600307 0.66767178 -0.74374163
-0.051867965 0.66614947 -0.7440125
-0.076540502 0.66296744 -0.74472527
-0.10615041 0.65951319 -0.74416023
-0.14260808 0.64841223 -0.74781315
-0.18659743 0.63771524 -0.74732902
-0.22840935 0.62792149 -0.74400523
-0.25741529 0.61772707 -0.7430684
-0.28608476 0.60882301 -0.7399257
-0.31741187 0.58655104 -0.74512253
-0.35581682 0.56260664 -0.746236
-0.39751463 0.53741822 -0.74374981
-0.45540887 0.50575934 -0.73267336
-0.47965051 0.47037711 -0.74072988
-0.51059567 0.43487174 -0.74174028
-0.54382541 0.4012263 -0.73706946
-0.56117459 0.37689313 -0.73690884
-0.57629065 0.35003926 -0.73848603
-0.59557812 0.32904361 -0.73281444
-0.60601476 0.3166216 -0.72972383
-0.62106849 0.3065 -0.72134019
-0.63583706 0.28460288 -0.71743462
-0.6455382 0.26780084 -0.71523643
-0.66158579 0.23341861 -0.7126149
-0.67129567 0.21545969 -0.70918209
0.026744683 0.65820589 -0.75236276
0.0004930542 0.66166856 -0.74979629
-0.0074154955 0.6638507 -0.74782836
-0.022211726 0.66102075 -0.7500388
-0.032865858 0.66148065 -0.74924174
-0.0452811 0.66224853 -0.74791477
-0.069310921 0.66109129 -0.74709725
-0.098602178 0.65760857 -0.74687923
-0.14114498 0.65210124 -0.74487722
-0.17611634 0.65151662 -0.73790862
-0.21403081 0.64171847 -0.73647011
-0.24809851 0.63417973 -0.73229993
-0.27965347 0.62651859 -0.72750835
-0.30483422 0.61385466 -0.72818854
-0.32824425 0.60505156 -0.72537461
-0.37640192 0.58712325 -0.71666442
-0.42301207 0.56416968 -0.70906513
-0.468816 0.53674342 -0.70151127
-0.50298988 0.50274687 -0.70302686
-0.53820383 0.46188915 -0.70497876
-0.5553339 0.42651785 -0.71392351
-0.5785661 0.39794507 -0.7119698
-0.60435604 0.3590085 -0.71124305
-0.62021634 0.33980942 -0.70700866
-0.62850765 0.31993352 -0.70895745
-0.64048462 0.29706105 -0.70819079
-0.65464619 0.28171801 -0.70147939
-0.66401357 0.26435232 -0.69943108
-0.67115434 0.23949514 -0.70156534
-0.68077614 0.21522431 -0.7001588
0.0053587159 0.67181354 -0.74070092
-0.010168267 0.67600486 -0.73682701
-0.016503478 0.6772928 -0.73552845
-0.025291925 0.67460504 -0.73774545
-0.041013165 0.67579836 -0.73594463
-0.062306291 0.67463747 -0.73551493
-0.087478484 0.6761476 -0.73155447
-0.12301421 0.67564932 -0.72688754
-0.16623177 0.67138347 -0.72222659
-0.20422307 0.66271454 -0.7204876
-0.23177623 0.65634081 -0.71798086
-0.2707252 0.64729279 -0.71254467
-0.29094527 0.64247773 -0.70892399
-0.31456332 0.63247139 -0.70783463
-0.35700176 0.61916723 -0.69941524
-0.40998728 0.60206903 -0.68514474
-0.45200084 0.58009575 -0.67763129
-0.49208652 0.55410526 -0.67142998
-0.53660249 0.52555572 -0.66018857
-0.5591875 0.49544666 -0.66471193
-0.59894285 0.45393195 -0.65970694
-0.61181128 0.4267712 -0.66599797
-0.63191029 0.38849426 -0.67064267
-0.65159053 0.35663747 -0.66950691
-0.66231708 0.32841639 -0.67340831
-0.67038223 0.30572467 -0.67610657
-0.67992708 0.2824314 -0.67670649
-0.68294873 0.26826918 -0.67942084
-0.68537199 0.25291658 -0.68286049
-0.69328414 0.22013134 -0.68622102
-0.010236052 0.68620553 -0.72733568
-0.016408914 0.6905722 -0.7230773
-0.022629087 0.69180666 -0.72172811
-0.036463174 0.69276036 -0.72024546
-0.056910928 0.69334581 -0.71835418
-0.085276226 0.69491133 -0.71402115
-0.11264827 0.69396338 -0.71114358
-0.1480769 0.69282213 -0.70574126
-0.18720925 0.68852715 -0.70063047
-0.21869772 0.67973783 -0.70009128
-0.25750908 0.67238398 -0.69396604
-0.28313577 0.66806325 -0.68813199
-0.31138191 0.66279678 -0.68098585
-0.34429143 0.65429372 -0.67332246
-0.38986514 0.6405118 -0.66162664
-0.43288319 0.62313639 -0.65139327
-0.47955398 0.60198422 -0.63846925
-0.52013711 0.57838125 -0.62843656
-0.56957297 0.54315565 -0.6169024
-0.60402078 0.5076889 -0.61433775
-0.62642591 0.47882717 -0.61507326
-0.6501782 0.44727539 -0.61417671
-0.66714667 0.41332553 -0.61973973
-0.68381676 0.37783833 -0.62420577
-0.69576481 0.3464948 -0.62916825
-0.69852969 0.31982358 -0.64013214
-0.70085073 0.2986752 -0.64776645
-0.70130559 0.27994001 -0.65559444
-0.70129598 0.26297065 -0.66259368
-0.70713207 0.22525185 -0.67024313
-0.027070632 0.69784588 -0.7157362
-0.028261654 0.70008901 -0.71349608
-0.034259033 0.70435423 -0.70902146
-0.049758691 0.70768233 -0.70477641
-0.071761243 0.7109216 -0.69960046
-0.099249454 0.71206891 -0.69505928
-0.12698787 0.71313369 -0.6894305
-0.15693747 0.71087992 -0.68558032
-0.19921002 0.70845617 -0.6770563
-0.24513669 0.70209458 -0.66855905
-0.27746623 0.69866798 -0.65945094
-0.30847508 0.69186084 -0.65281828
-0.33795598 0.68438052 -0.64607202
-0.37371963 0.67673026 -0.63432625
-0.41811113 0.65756267 -0.62673313
-0.46301145 0.6375636 -0.61573781
-0.51220689 0.60882696 -0.60578365
-0.5521361 0.58630087 -0.5927875
-0.5982792 0.55702286 -0.57601002
-0.63394155 0.52828035 -0.56483448
-0.65723631 0.4883386 -0.57407826
-0.67868261 0.45586372 -0.57582826
-0.69175191 0.42575247 -0.58327878
-0.70679795 0.39348161 -0.5878851
-0.71571077 0.36801938 -0.59356536
-0.71869875 0.33954448 -0.60677974
-0.7159556 0.31520929 -0.62293714
-0.71846094 0.29358832 -0.630571
-0.71649681 0.27092627 -0.64283068
-0.72251563 0.22980268 -0.65204439
-0.043637656 0.70355662 -0.70929813
-0.049828697 0.70756226 -0.70489201
-0.054835284 0.71436077 -0.69762582
-0.070437827 0.72119223 -0.6891446
-0.089735464 0.72693972 -0.68081289
-0.12260886 0.72938905 -0.67302205
-0.1496953 0.7280801 -0.66894744
-0.18948074 0.7296825 -0.65700876
-0.2272056 0.72850677 -0.64626272
-0.26705674 0.72499524 -0.63487212
-0.29415307 0.72055145 -0.62791685
-0.32739554 0.71507814 -0.61763696
-0.363777 0.70748193 -0.60591717
-0.40823173 0.69322345 -0.59395968
-0.45656439 0.67083135 -0.58440933
-0.50855757 0.64720233 -0.56788937
-0.54773558 0.62635135 -0.55467984
-0.58438759 0.60291095 -0.54312939
-0.62474183 0.56984875 -0.53382585
-0.65714691 0.53914984 -0.52675933
-0.68544152 0.49890579 -0.53034228
-0.69790261 0.46724323 -0.54278515
-0.71258029 0.43558856 -0.54999266
-0.7240471 0.41100589 -0.55392233
-0.73077667 0.38441851 -0.56408144
-0.73378059 0.35719626 -0.57790732
-0.73365291 0.33310426 -0.59227946
-0.73217085 0.3144927 -0.60416901
-0.72974414 0.28886915 -0.6197
-0.73086169 0.24313102 -0.63775269
-0.062311247 0.71507079 -0.6962694
-0.069731948 0.71964914 -0.69082745
-0.073459434 0.72735507 -0.68231834
-0.089798146 0.73451271 -0.67262722
-0.11459441 0.73827299 -0.66469626
-0.14247851 0.74341457 -0.65347888
-0.18482007 0.74310859 -0.64314163
-0.22299028 0.74276701 -0.63132599
-0.2616996 0.73997394 -0.61963852
-0.28834011 0.737874 -0.61024745
-0.31415336 0.73395379 -0.60217896
-0.35022914 0.73016489 -0.58668457
-0.40018101 0.72027803 -0.5666169
-0.45224955 0.70975079 -0.54011495
-0.49288142 0.69510904 -0.52334627
-0.54675353 0.67345688 -0.49751021
-0.58193875 0.64512075 -0.49514293
-0.6114756 0.61908327 -0.49278139
-0.64378058 0.59497401 -0.48119902
-0.67394151 0.55989735 -0.48199356
-0.69799653 0.51852334 -0.49389715
-0.71481192 0.48071597 -0.50789377
-0.72636892 0.44861981 -0.52069997
-0.73641043 0.4218774 -0.52888481
-0.74117595 0.39802897 -0.54058408
-0.74443456 0.37861805 -0.54996869
-0.74527763 0.35578512 -0.56389555
-0.74431959 0.33011643 -0.58052691
-0.74285326 0.30485139 -0.59601566
-0.74639426 0.25933254 -0.6128966
-0.082803545 0.72968063 -0.67875603
-0.093092193 0.73679156 -0.66968056
-0.0977645 0.74417113 -0.66079605
-0.1100922 0.74796954 -0.65453898
-0.13288964 0.75156115 -0.64613945
-0.16486041 0.75444718 -0.6353192
-0.20790376 0.75472929 -0.62222161
-0.24829568 0.75178396 -0.61087652
-0.28289974 0.7503011 -0.59750815
-0.31512692 0.75055736 -0.58082586
-0.35344869 0.74786492 -0.56193601
-0.39500237 0.74388264 -0.53908418
-0.44380871 0.73776022 -0.50866854
-0.48932501 0.72035384 -0.49158049
-0.53665697 0.70066424 -0.47017967
-0.57263076 0.68583701 -0.44913428
-0.60313834 0.66229394 -0.44451195
-0.63479359 0.64389516 -0.42712541
-0.66396396 0.61005624 -0.43241559
-0.68857094 0.58244528 -0.43200412
-0.71063478 0.54421436 -0.4459024
-0.72880443 0.50176398 -0.46591525
-0.7385924 0.46351752 -0.48952301
-0.74632279 0.43621742 -0.50270932
-0.74979557 0.41192403 -0.51780807
-0.75255018 0.39166862 -0.52939958
-0.75306414 0.37007172 -0.54400489
-0.75307293 0.34734745 -0.55877627
-0.75259937 0.32064346 -0.57513647
-0.75743478 0.28537159 -0.58724408
-0.097898712 0.74186655 -0.66336255
-0.1108781 0.74553226 -0.65718164
-0.11937712 0.75055194 -0.64993914
-0.12877461 0.7576127 -0.63987507
-0.1525278 0.76320455 -0.62789656
-0.19253733 0.76330255 -0.61668354
-0.23507937 0.76339976 -0.60162987
-0.27657588 0.76110911 -0.58670154
-0.3118552 0.76089558 -0.56902043
-0.3508526 0.76169871 -0.54471785
-0.39605521 0.76128603 -0.51340417
-0.43521577 0.7543023 -0.49154377
-0.48141563 0.74066389 -0.46867471
-0.53090024 0.7225991 -0.44271376
-0.57410732 0.70540526 -0.41569726
-0.60583917 0.68806022 -0.39941462
-0.63173281 0.67235557 -0.38581297
-0.65228084 0.65472524 -0.38192219
-0.67609833 0.63166352 -0.37933132
-0.69978128 0.59839172 -0.39017113
-0.71807515 0.57536616 -0.39156335
-0.73898544 0.52681954 -0.41995439
-0.75058884 0.48579482 -0.44790601
-0.75550567 0.45319818 -0.47309892
-0.75985842 0.42868266 -0.4887191
-0.76291115 0.40674905 -0.50251546
-0.76106452 0.38373121 -0.52300207
-0.7610123 0.35890511 -0.5404141
-0.76404232 0.32590065 -0.55680167
-0.76677957 0.29411654 -0.57056512
-0.11099075 0.75148834 -0.65034323
-0.12102647 0.75358564 -0.64611244
-0.13419271 0.75738355 -0.63903245
-0.15028754 0.76448458 -0.62687877
-0.17965916 0.77092561 -0.61106161
-0.22293865 0.77165317 -0.59569266
-0.27187408 0.77066822 -0.57632888
-0.31420312 0.76924129 -0.556367
-0.34972115 0.76948313 -0.53440699
-0.39175442 0.77028826 -0.50317439
-0.43240317 0.76777996 -0.47280169
-0.47305914 0.76020601 -0.44531097
-0.51471964 0.74784302 -0.41927857
-0.56352316 0.7263288 -0.39355827
-0.60012953 0.71085516 -0.36678261
-0.62636402 0.69429962 -0.35442369
-0.64914368 0.67775728 -0.34533687
-0.66370144 0.66292314 -0.34645823
-0.68767733 0.64058484 -0.34168839
-0.70788221 0.6172523 -0.34336917
-0.7241518 0.59341202 -0.35137778
-0.74330657 0.5539924 -0.37495035
-0.75787169 0.51840649 -0.39608738
-0.76623587 0.48001098 -0.42716748
-0.77122641 0.44837663 -0.45184979
-0.77224978 0.42606109 -0.47127723
-0.76936577 0.4013905 -0.49695269
-0.76965509 0.37377464 -0.51761333
-0.77178852 0.34170329 -0.53626611
-0.7769784 0.30002837 -0.5534325
-0.11849227 0.75750961 -0.64198035
-0.13277484 0.75951175 -0.63679882
-0.15171726 0.76391076 -0.62723378
-0.18106296 0.76983116 -0.6120263
-0.21345858 0.77480389 -0.5950751
-0.25542362 0.77674895 -0.57569076
-0.30069703 0.77680843 -0.5533082
-0.3424664 0.77756023 -0.52736786
-0.382463 0.77964893 -0.4958524
-0.42381887 0.7793337 -0.46153716
-0.46836579 0.77186291 -0.4299548
-0.51579206 0.76214413 -0.3912734
-0.56041415 0.74461649 -0.36260484
-0.59149609 0.72902662 -0.34445981
-0.62099179 0.71166789 -0.32847833
-0.64373691 0.69506073 -0.32014585
-0.66138951 0.68168182 -0.3128479
-0.6754409 0.66659919 -0.31531747
-0.69192733 0.64960076 -0.31504827
-0.7080726 0.6295669 -0.31981045
-0.72468161 0.60972645 -0.32104551
-0.74487159 0.57604797 -0.33665272
-0.76037385 0.54180155 -0.35816572
-0.77258582 0.50298118 -0.38745462
-0.7790953 0.46941964 -0.4155186
-0.78090867 0.44293925 -0.44043896
-0.77724427 0.41867895 -0.46967998
-0.77681938 0.39420551 -0.49107398
-0.78000934 0.35930576 -0.5123327
-0.78512317 0.31973268 -0.53042684
-0.12637009 0.76389918 -0.63284171
-0.14832777 0.76707226 -0.62417867
-0.17461092 0.77086719 -0.61259676
-0.20370811 0.77615133 -0.59673455
-0.24213861 0.78094948 -0.57574891
-0.28532201 0.78362683 -0.55183361
-0.33860383 0.78647615 -0.51652948
-0.38170482 0.78843238 -0.48236481
-0.42661914 0.78773232 -0.44438036
-0.47249405 0.78276017 -0.40501344
-0.51172761 0.77399737 -0.37291143
-0.55377834 0.76053096 -0.33900178
-0.59378074 0.74238316 -0.31030901
-0.61392089 0.73101137 -0.29786493
-0.63954104 0.71274944 -0.28805468
-0.65306791 0.7015988 -0.28506391
-0.66790593 0.69049695 -0.27769702
-0.6806907 0.67805799 -0.27730404
-0.69999799 0.6560697 -0.28209107
-0.71563707 0.63986078 -0.28007458
-0.73131131 0.61968113 -0.28491942
-0.74445131 0.59922667 -0.29448201
-0.76544112 0.56079145 -0.31561502
-0.77751492 0.5299435 -0.33857118
-0.78739504 0.48978218 -0.37432935
-0.79131073 0.46005034 -0.40271705
-0.78851952 0.43827939 -0.43144888
-0.7867602 0.41206663 -0.45957534
-0.78941533 0.37952084 -0.48248043
-0.7939929 0.34126331 -0.50310498
-0.14279321 0.77522539 -0.61533381
-0.16931436 0.77578955 -0.60785131
-0.19848338 0.77817126 -0.59586394
-0.23182835 0.7851101 -0.57433244
-0.28188446 0.78979449 -0.54476216
-0.32465718 0.79352787 -0.51469528
-0.38323229 0.79320609 -0.47324108
-0.43329543 0.79327253 -0.42775434
-0.47597399 0.7894326 -0.38761441
-0.51821601 0.78209509 -0.34609166
-0.55221962 0.77250022 -0.31352338
-0.58693746 0.75741536 -0.28605313
-0.61579399 0.74145557 -0.26653592
-0.63021668 0.7323391 -0.25788831
-0.64875047 0.72004807 -0.24627953
-0.66324753 0.70874088 -0.24039358
-0.6767031 0.69645665 -0.23879082
-0.69277949 0.68184889 -0.23481624
-0.70678859 0.66778168 -0.23348989
-0.72471104 0.64852415 -0.23283112
-0.73744187 0.6319184 -0.23845046
-0.75133838 0.61115601 -0.24895574
-0.76625333 0.58216591 -0.27191669
-0.77797958 0.55451054 -0.2954079
-0.79153982 0.51463336 -0.32957125
-0.79701758 0.48328057 -0.36221936
-0.79759479 0.45680787 -0.39391512
-0.79753126 0.42929138 -0.42385468
-0.79962826 0.39611416 -0.45131831
-0.80309284 0.36193272 -0.4733356
-0.15588247 0.78479957 -0.59982521
-0.18833629 0.78882626 -0.58504921
-0.21960217 0.79173151 -0.57003166
-0.26368701 0.79693687 -0.54347106
-0.31611545 0.7971616 -0.51439712
-0.37069714 0.80121894 -0.46971463
-0.42938719 0.79900779 -0.42096697
-0.47518661 0.79846324 -0.36966761
-0.5113027 0.79344164 -0.33018162
-0.54395431 0.78557298 -0.29493865
-0.57361607 0.77473374 -0.26599291
-0.60033437 0.76175411 -0.24357612
-0.62518842 0.74578624 -0.230092
-0.64553573 0.73360761 -0.21237585
-0.6574265 0.72589755 -0.20214635
-0.67591461 0.71107456 -0.19368118
-0.69216751 0.70025282 -0.17478594
-0.70419374 0.68798259 -0.17547403
-0.71529059 0.6764573 -0.17539924
-0.73024258 0.65945091 -0.17852244
-0.74429009 0.64284518 -0.18105892
-0.75587581 0.62470683 -0.19594167
-0.76940846 0.59918967 -0.2213196
-0.78152155 0.57407824 -0.24425037
-0.79403823 0.54082728 -0.27750522
-0.80146162 0.50641251 -0.31812834
-0.80370019 0.47797205 -0.35441321
-0.80555727 0.45204504 -0.38305713
-0.80620271 0.42409255 -0.41253206
-0.81133836 0.38905005 -0.43631426
-0.17273999 0.7965783 -0.57933058
-0.20229715 0.80108783 -0.5633242
-0.24428101 0.80414887 -0.54191455
-0.29534503 0.80606202 -0.51286971
-0.35207882 0.81146139 -0.46644497
-0.41528567 0.81110164 -0.41188826
-0.47368036 0.80518921 -0.3567874
-0.50770174 0.80295736 -0.31224735
-0.53806989 0.7963872 -0.2761308
-0.56295507 0.78822945 -0.24854763
-0.59598072 0.77199649 -0.22097149
-0.61753713 0.76070831 -0.19992691
-0.63426354 0.7514076 -0.18192411
-0.65340518 0.7390691 -0.16382475
-0.67120995 0.72335989 -0.16194962
-0.6863447 0.71266987 -0.14502624
-0.70369808 0.69895496 -0.12755774
-0.71636144 0.68653444 -0.12448597
-0.7242296 0.67799125 -0.12577502
-0.73814336 0.66332493 -0.12306266
-0.74965087 0.64976989 -0.12578814
-0.76153461 0.63332414 -0.13771553
-0.77245449 0.61094337 -0.17338469
-0.78440489 0.58667741 -0.20129229
-0.79718136 0.55508702 -0.23744533
-0.80478879 0.52860462 -0.26998548
-0.81060208 0.49856611 -0.30717437
-0.81184962 0.47558907 -0.33869637
-0.81228507 0.44795482 -0.3735364
-0.81490055 0.41989533 -0.39953097
-0.18327511 0.80871414 -0.55892009
-0.21869604 0.81119729 -0.54233845
-0.26390951 0.81849557 -0.51031047
-0.31968494 0.82522884 -0.46561668
-0.39247721 0.82718488 -0.40215272
-0.45291353 0.82018886 -0.34951334
-0.50144409 0.81260845 -0.29702076
-0.52933694 0.80685962 -0.26225932
-0.56195284 0.79441028 -0.23048063
-0.58378988 0.78562258 -0.20490616
-0.60801911 0.77237007 -0.18373142
-0.63386762 0.7567195 -0.15996073
-0.64632944 0.74898557 -0.14587279
-0.65966311 0.73958753 -0.13362209
-0.67836936 0.72405763 -0.12472192
-0.69420447 0.71086239 -0.11293719
-0.70830162 0.69911875 -0.097682061
-0.72058637 0.68694873 -0.094110161
-0.73146373 0.67607618 -0.088779496
-0.74057452 0.66588888 -0.09022965
-0.75197625 0.65294781 -0.090503458
-0.76238297 0.64019045 -0.094490179
-0.77447834 0.61945768 -0.12827894
-0.78826211 0.59533859 -0.1556111
-0.79891042 0.57116638 -0.18844393
-0.80780626 0.54444142 -0.22590392
-0.81630272 0.5179292 -0.25573269
-0.81900829 0.48987893 -0.29873744
-0.81941931 0.46688602 -0.33251984
-0.82214811 0.44243309 -0.35822541
-0.19889164 0.82071927 -0.535595
-0.2389398 0.82492313 -0.51225931
-0.28560872 0.83714663 -0.46649028
-0.34938632 0.8353495 -0.42440595
-0.42005824 0.8323209 -0.36165314
-0.48216433 0.82333081 -0.29940597
-0.52343026 0.81482685 -0.24915449
-0.55241114 0.80606337 -0.2123765
-0.57674594 0.79607401 -0.18338565
-0.59648488 0.78623166 -0.16138639
-0.62123113 0.77080631 -0.14117196
-0.64060567 0.75811932 -0.12198141
-0.65486257 0.74762421 -0.11051271
-0.66853502 0.73621088 -0.10514022
-0.68636566 0.72122449 -0.093474142
-0.70163002 0.70759841 -0.083784236
-0.71432836 0.69596447 -0.073269719
-0.72514397 0.68531628 -0.067140234
-0.73372778 0.67635403 -0.064720717
-0.74264738 0.66628505 -0.067372912
-0.75031656 0.65760151 -0.067714981
-0.7597922 0.6465279 -0.068683943
-0.77364358 0.62716673 -0.090208115
-0.78633848 0.60739208 -0.1129011
-0.79805672 0.58590101 -0.14080293
-0.80978333 0.55956133 -0.17647119
-0.8169405 0.53091102 -0.22525919
-0.8227502 0.50229281 -0.26605269
-0.82552398 0.48107276 -0.29509178
-0.82656168 0.45920622 -0.32546189
-0.21640633 0.83384981 -0.50780192
-0.26201701 0.8359643 -0.48219371
-0.31785661 0.84594972 -0.42817782
-0.3826773 0.84621413 -0.3707826
-0.44799496 0.84085389 -0.30375196
-0.5089126 0.82538101 -0.24444661
-0.54329634 0.81385166 -0.20609358
-0.56778371 0.80553805 -0.16949957
-0.58942164 0.7962845 -0.13606299
-0.61095183 0.7823736 -0.12095211
-0.62895242 0.76973747 -0.10919291
-0.64573181 0.7573743 -0.097028859
-0.65914812 0.74642558 -0.091501908
-0.67439721 0.73393521 -0.080793016
-0.69079418 0.71915387 -0.07497404
-0.70628868 0.70524892 -0.06148381
-0.71866082 0.6931568 -0.055319707
-0.7280503 0.68354252 -0.05208043
-0.73627495 0.67466818 -0.052173239
-0.74391157 0.66658123 -0.047592377
-0.75199046 0.6571034 -0.052205917
-0.75992072 0.64797319 -0.051490219
-0.77108131 0.63349081 -0.064210634
-0.78297033 0.6158672 -0.087550323
-0.79328353 0.59882602 -0.11003925
-0.80553713 0.57580119 -0.13986748
-0.81684392 0.54782909 -0.18069114
-0.82263701 0.52306436 -0.22287224
-0.82955533 0.49759556 -0.25344943
-0.8306854 0.47607393 -0.28864405
-0.23874428 0.84329272 -0.48151693
-0.29878884 0.8503639 -0.43313563
-0.35018576 0.85605038 -0.38019427
-0.41741513 0.8496917 -0.32216242
-0.47420953 0.83907685 -0.26659964
-0.53001135 0.82155708 -0.21007601
-0.56059297 0.81077021 -0.168485
-0.58239988 0.80215542 -0.13174622
-0.5962 0.79533645 -0.10947831
-0.61686826 0.78082026 -0.098960947
-0.6317128 0.7700538 -0.08919686
-0.64921468 0.75636435 -0.080207663
-0.6645273 0.7437223 -0.072667791
-0.68033374 0.73012212 -0.063778523
-0.69632136 0.71535787 -0.058306694
-0.71036839 0.70204432 -0.050105035
-0.72195309 0.69062775 -0.042626823
-0.7296365 0.68278156 -0.037946193
-0.73642697 0.67544894 -0.038000559
-0.74368134 0.66748885 -0.037372459
-0.75216553 0.65780092 -0.039306154
-0.76098533 0.64743361 -0.04160586
-0.76992295 0.63640235 -0.047018068
-0.78017473 0.62227797 -0.064011856
-0.78923097 0.60786694 -0.087248229
-0.8007096 0.58785556 -0.11528219
-0.81041012 0.56601217 -0.15121398
-0.82158618 0.53664635 -0.19237161
-0.82559822 0.5163187 -0.22760179
-0.83165278 0.49285928 -0.25581904
-0.25552548 0.85878656 -0.44406348
-0.30893052 0.86060991 -0.40486111
-0.37103506 0.86209536 -0.34514427