# vtk DataFile Version 2.0
Grain example
ASCII
DATASET UNSTRUCTURED_GRID
POINTS 900 float
17.948623 3.3594316 -8.5019569
17.940856 3.7473475 -8.5876532
17.890413 4.1052319 -8.6790068
17.842808 4.4645833 -8.7444966
17.81714 4.8105897 -8.7981154
17.786304 5.1683974 -8.8248418
17.753504 5.5644259 -8.8494442
17.738862 6.0411293 -8.8513362
17.733949 6.5637997 -8.8365109
17.733589 7.09351 -8.8253508
17.738284 7.6261005 -8.8064024
17.748184 8.1713595 -8.7857575
17.740959 8.7235489 -8.7634264
17.712021 9.2144233 -8.7764745
17.657434 9.6674356 -8.7875452
17.589012 10.110894 -8.7948737
17.51972 10.559093 -8.805305
17.432459 10.992706 -8.8358388
17.338837 11.439736 -8.8757815
17.234457 11.875377 -8.9366626
17.085017 12.274163 -9.0080955
16.900076 12.65475 -9.0782616
16.718315 13.04197 -9.1038016
16.536789 13.452574 -9.1000423
16.33451 13.848846 -9.0906704
16.106884 14.26785 -9.1083587
15.819701 14.645493 -9.1448924
15.393087 14.986513 -9.1809981
14.961877 15.310113 -9.2069588
14.464085 15.60579 -9.2393579
18.567239 3.4657041 -7.7843335
18.563946 3.8688453 -7.8612746
18.55279 4.2815312 -7.9366706
18.507035 4.6626404 -8.0154575
18.483652 5.0464028 -8.0747504
18.447722 5.4609138 -8.120179
18.42673 5.9403565 -8.124805
18.421453 6.4741863 -8.1082377
18.419564 7.0108003 -8.0928635
18.418253 7.5442528 -8.0754205
18.419839 8.0923412 -8.0578819
18.414972 8.647606 -8.0370931
18.394326 9.1724875 -8.0349576
18.356804 9.6584889 -8.0551178
18.324536 10.153016 -8.0797597
18.244258 10.614718 -8.1091714
18.127686 11.062255 -8.1706753
18.02045 11.498234 -8.2366146
17.907981 11.927727 -8.3125057
17.774857 12.339198 -8.3936239
17.636623 12.741352 -8.4697437
17.421194 13.143987 -8.5542106
17.15969 13.555884 -8.6343345
16.930456 13.994258 -8.6643835
16.696004 14.419313 -8.6913407
16.455174 14.837377 -8.719342
16.101303 15.205313 -8.7517765
15.649565 15.535299 -8.789421
15.174575 15.854654 -8.8285551
14.619897 16.114216 -8.87387
19.173191 3.5637926 -7.046087
19.185244 3.9880525 -7.1249777
19.180435 4.4163679 -7.191569
19.170435 4.8594688 -7.2506867
19.155326 5.2932541 -7.3048049
19.132569 5.803534 -7.3289834
19.134945 6.3781484 -7.354215
19.126265 6.9252104 -7.346463
19.121997 7.468031 -7.3265764
19.119308 8.0181756 -7.3110115
19.110372 8.5666196 -7.3041642
19.088496 9.1296171 -7.2909455
19.049992 9.6301365 -7.3115613
19.007149 10.129909 -7.3455701
18.94714 10.628806 -7.421282
18.86706 11.110365 -7.4937795
18.710788 11.556969 -7.596191
18.555661 12.004081 -7.7075103
18.410238 12.450689 -7.8125646
18.255517 12.885699 -7.920643
18.05866 13.310673 -8.0248502
17.82364 13.719898 -8.120975
17.5608 14.129174 -8.2040636
17.277352 14.563912 -8.2625089
17.038754 14.985741 -8.2925053
16.758193 15.406479 -8.3198015
16.344162 15.752545 -8.352646
15.880056 16.085484 -8.3897409
15.358093 16.368527 -8.4444591
14.728668 16.635308 -8.4624537
19.763035 3.6444787 -6.2732378
19.787473 4.0861943 -6.3610406
19.799737 4.5551902 -6.4239778
19.812014 5.054092 -6.461728
19.81975 5.5917775 -6.4805706
19.83308 6.1887658 -6.5004694
19.83077 6.7807392 -6.5197541
19.828955 7.3714397 -6.5469381
19.821801 7.9393678 -6.5519782
19.81444 8.5069894 -6.5480851
19.792734 9.0704918 -6.5439292
19.753426 9.6090534 -6.575283
19.654816 10.129074 -6.6660227
19.548661 10.644576 -6.7683157
19.454849 11.150119 -6.8799466
19.353611 11.644467 -6.994553
19.211907 12.099402 -7.1085982
19.053751 12.537909 -7.2238031
18.895772 12.985359 -7.3401804
18.693151 13.440999 -7.460089
18.475716 13.887827 -7.5812648
18.223853 14.292041 -7.6857462
17.948066 14.707432 -7.7703536
17.635937 15.137466 -7.8524151
17.377969 15.55936 -7.8899572
17.031659 15.970594 -7.9131297
16.583489 16.306967 -7.9498038
16.071463 16.617914 -8.0028092
15.4824 16.890633 -8.0355622
14.779693 17.132717 -8.0543126
20.361387 3.695188 -5.5153859
20.377693 4.1856263 -5.5647471
20.415683 4.7051203 -5.6199968
20.430649 5.315867 -5.6570033
20.465691 5.9416541 -5.6738516
20.491784 6.5737272 -5.696069
20.505698 7.2064618 -5.7206606
20.508873 7.809475 -5.7459604
20.477297 8.4319441 -5.8109483
20.429883 9.0422426 -5.8664951
20.368116 9.6518373 -5.9283012
20.261979 10.179124 -6.0335679
20.144914 10.677265 -6.1399319
20.029445 11.161004 -6.258975
19.922864 11.645426 -6.3770142
19.816997 12.136575 -6.4991413
19.708656 12.627322 -6.6258026
19.542176 13.069653 -6.7403507
19.366193 13.531725 -6.8556012
19.1462 13.987859 -6.9830042
18.912976 14.447713 -7.1148622
18.650255 14.87259 -7.2340028
18.33674 15.285992 -7.3366055
18.022266 15.715521 -7.4187291
17.681323 16.148153 -7.471956
17.284904 16.532682 -7.5040616
16.801041 16.848744 -7.5513414
16.221786 17.145841 -7.586779
15.538187 17.401687 -7.6176319
14.801181 17.623332 -7.6598456
20.903915 3.7010071 -4.7384747
20.948006 4.3051502 -4.775439
20.980246 4.9330273 -4.8291412
21.00418 5.6429724 -4.8828153
21.054757 6.352089 -4.9316803
21.065195 7.0343166 -4.9921438
21.064527 7.7094837 -5.0587591
21.054674 8.3625287 -5.1261918
21.020306 9.0000042 -5.2010064
20.944651 9.6165049 -5.2912999
20.852796 10.18299 -5.3836621
20.733282 10.681466 -5.5125652
20.609921 11.16905 -5.6352814
20.499432 11.653583 -5.7584069
20.393058 12.138871 -5.8769538
20.290028 12.637072 -5.9986426
20.188176 13.14936 -6.1245576
20.030969 13.623002 -6.2484021
19.839484 14.084327 -6.37007
19.59766 14.539995 -6.5050848
19.363569 14.99733 -6.6398954
19.092543 15.456989 -6.7689451
18.770552 15.869519 -6.8767544
18.382852 16.30998 -6.9643408
18.004146 16.741783 -7.0341003
17.517981 17.083638 -7.0978667
16.96572 17.406697 -7.1320166
16.277114 17.678107 -7.1668203
15.559123 17.902683 -7.2099965
14.819393 18.128193 -7.2528702
21.224526 3.7868198 -4.0911574
21.329924 4.5231309 -4.1130886
21.405504 5.2877802 -4.1663027
21.465672 6.0997787 -4.2428098
21.519592 6.8295947 -4.3128442
21.566665 7.5523154 -4.3839349
21.567187 8.2197859 -4.4543245
21.544658 8.8730892 -4.5415088
21.498948 9.5207047 -4.6332598
21.418162 10.130874 -4.7379724
21.306924 10.649896 -4.8739935
21.189673 11.147878 -4.9934497
21.072593 11.646365 -5.1219675
20.96944 12.14932 -5.2554216
20.862742 12.633717 -5.3734642
20.749573 13.145899 -5.4967481
20.640975 13.669614 -5.6221155
20.524239 14.17541 -5.7463698
20.309816 14.637673 -5.8767049
20.067482 15.094184 -6.0167155
19.821996 15.553515 -6.1524157
19.55323 16.024472 -6.292548
19.198021 16.456558 -6.4047646
18.779612 16.910543 -6.4925863
18.308512 17.33091 -6.5788543
17.686818 17.66613 -6.6734623
17.020866 17.94454 -6.7111865
16.307557 18.191008 -6.7650936
15.577025 18.409595 -6.8065481
14.835835 18.614432 -6.8564827
21.500366 3.8837485 -3.4930945
21.599132 4.6879656 -3.5146514
21.712234 5.6077536 -3.5490794
21.851941 6.5048492 -3.6308516
21.93781 7.2741487 -3.7116364
21.993484 7.999938 -3.7964215
22.025003 8.7062598 -3.8904813
21.993671 9.3650591 -3.9825172
21.937146 9.9856645 -4.0854574
21.862019 10.570042 -4.2038527
21.752752 11.09496 -4.3476279
21.640414 11.610078 -4.4857732
21.534005 12.113403 -4.611209
21.429158 12.628743 -4.7395126
21.314496 13.14977 -4.872952
21.206121 13.666963 -4.9942068
21.096478 14.186477 -5.1215041
20.978688 14.702592 -5.24799
20.780884 15.190011 -5.3847859
20.53895 15.648941 -5.5218568
20.278174 16.113881 -5.6591368
20.005294 16.595189 -5.7976257
19.615931 17.076105 -5.9019821
19.164625 17.554169 -5.9947904
18.580945 17.945178 -6.1027816
17.794173 18.233154 -6.2163908
17.050231 18.461877 -6.3036291
16.323714 18.701045 -6.3572975
15.585553 18.914487 -6.4033468
14.851296 19.095058 -6.45455
21.74407 4.0071364 -2.9342876
21.836301 4.873662 -2.9563452
21.961614 5.853653 -2.9737772
22.131074 6.795018 -3.0257725
22.268532 7.6434883 -3.1433313
22.342448 8.4163545 -3.2414323
22.393601 9.1423852 -3.3402577
22.396715 9.8074899 -3.448235
22.348372 10.426705 -3.5533751
22.271369 10.97928 -3.687299
22.188381 11.523433 -3.8256991
22.08247 12.045994 -3.9674608
21.97692 12.584949 -4.1018587
21.864872 13.116481 -4.2304721
21.763046 13.645764 -4.358227
21.663229 14.185337 -4.4920886
21.551171 14.706664 -4.6165204
21.417407 15.22029 -4.7484102
21.245103 15.742514 -4.8940738
20.989877 16.218247 -5.0284288
20.714982 16.703788 -5.1611122
20.397528 17.214085 -5.2832137
20.027712 17.710238 -5.3917498
19.532137 18.200285 -5.4772392
18.768621 18.551523 -5.6036004
17.907946 18.770392 -5.75503
17.087803 18.981196 -5.8894093
16.336254 19.209719 -5.9503287
15.586865 19.398053 -6.006626
14.862538 19.555931 -6.0393108
21.94736 4.1312448 -2.3956009
22.06463 5.069643 -2.4015018
22.193778 6.0757962 -2.4302764
22.326122 7.0550675 -2.481224
22.49909 7.9021883 -2.5658976
22.636654 8.7546571 -2.6815507
22.717951 9.5174496 -2.7941035
22.737199 10.200818 -2.910895
22.717783 10.825281 -3.0365916
22.657463 11.383226 -3.1755708
22.585815 11.928937 -3.310924
22.49712 12.490692 -3.4436925
22.400012 13.047704 -3.5902081
22.29312 13.593966 -3.7293893
22.196854 14.144247 -3.8584004
22.098786 14.684542 -3.990238
21.990227 15.228197 -4.1214764
21.842395 15.753314 -4.2540382
21.657848 16.296544 -4.3950555
21.420387 16.820154 -4.5323355
21.121734 17.314943 -4.6537849
20.791104 17.831519 -4.7709642
20.41328 18.345933 -4.8669739
19.760915 18.809712 -4.965688
18.91127 19.09446 -5.1236015
18.039803 19.316407 -5.2808868
17.198627 19.520423 -5.4248316
16.341959 19.694735 -5.5466786
15.603907 19.869081 -5.5924109
14.865828 20.01552 -5.6113866
22.112333 4.2710487 -1.8772801
22.21749 5.2317448 -1.9078379
22.350561 6.2476482 -1.937686
22.488139 7.2701421 -1.9665389
22.665719 8.1500659 -2.035869
22.831261 8.985991 -2.1235174
22.937732 9.7715913 -2.2506546
23.027738 10.541452 -2.3749959
23.034979 11.172185 -2.5178662
23.014995 11.773277 -2.6619546
22.946648 12.351212 -2.7993626
22.863203 12.916565 -2.9357267
22.79303 13.494185 -3.0754257
22.717701 14.068759 -3.2184385
22.626104 14.626878 -3.3603712
22.524026 15.196048 -3.4889606
22.388142 15.759361 -3.6259155
22.241126 16.309727 -3.7609606
22.042398 16.864532 -3.8994295
21.825235 17.413244 -4.0348666
21.507594 17.933202 -4.1509712
21.142729 18.460773 -4.2459852
20.673588 18.963614 -4.3527606
[...]
POINT_DATA 900
VECTORS normals float
0.7439089 -0.055355834 -0.66598445
0.74059398 -0.045716593 -0.67039581
0.73433422 -0.033726298 -0.67794969
0.73095755 -0.025302884 -0.68195368
0.72607846 -0.01435967 -0.68746191
0.72271486 -0.0060073886 -0.6911202
0.7212581 -0.0011259606 -0.69266549
0.7209431 0.0078109085 -0.69295024
0.71803911 0.0095044685 -0.69593786
0.71613657 0.012673342 -0.69784511
0.7146057 0.021389952 -0.69920038
0.709919 0.026554106 -0.70378256
0.70614427 0.041585153 -0.70684577
0.70132822 0.048823823 -0.71116451
0.69370053 0.06428485 -0.71738904
0.68710815 0.072707832 -0.72290799
0.67948528 0.074617613 -0.7298849
0.67209744 0.078922169 -0.73624475
0.65598244 0.088428589 -0.74957816
0.63948442 0.10813446 -0.76116136
0.62299939 0.13629493 -0.77025674
0.60355791 0.15887055 -0.78133091
0.58785717 0.19977448 -0.7839095
0.55399323 0.24870983 -0.79450294
0.53468348 0.27466754 -0.79916914
0.49772203 0.31647187 -0.80753844
0.45719147 0.35940851 -0.81351182
0.41712225 0.4070073 -0.81262174
0.36753116 0.45750364 -0.80969825
0.31216737 0.51682968 -0.79714403
0.76067321 -0.07135247 -0.64520159
0.75610728 -0.056690868 -0.65198767
0.75213849 -0.046315707 -0.6573755
0.74523544 -0.033182402 -0.66597528
0.74001277 -0.018474132 -0.67233906
0.7367077 -0.0097139328 -0.67614156
0.73299161 -0.0033797585 -0.68022929
0.72870002 0.0035321073 -0.68482393
0.72543985 0.0067242985 -0.68825272
0.72323816 0.01371166 -0.69046257
0.7220118 0.018740305 -0.6916269
0.71918149 0.028835396 -0.69422367
0.71572185 0.038362059 -0.69733105
0.70891153 0.045899158 -0.70380233
0.70085499 0.055374423 -0.71115115
0.69310681 0.055410293 -0.71870206
0.68567548 0.056195689 -0.72573492
0.67537937 0.061274208 -0.73492053
0.66441009 0.072399162 -0.74385321
0.64624428 0.098942465 -0.75668932
0.62483571 0.13126624 -0.76964246
0.60565094 0.17400003 -0.77647339
0.57636425 0.21323878 -0.78888115
0.54739285 0.25308881 -0.79768861
0.51858459 0.28792055 -0.80509116
0.48170366 0.32336688 -0.81449091
0.44646106 0.3678009 -0.81571749
0.38598481 0.44035219 -0.81062055
0.33800476 0.48675941 -0.80549243
0.2968359 0.5302043 -0.79421146
0.78498661 -0.084542185 -0.61371707
0.77906783 -0.066863239 -0.62336396
0.77380782 -0.054791135 -0.63104626
0.77088574 -0.04778386 -0.63517862
0.76449281 -0.032299143 -0.64382257
0.75595967 -0.018976075 -0.65434309
0.74955375 -0.0094272048 -0.66187635
0.74509668 -0.0052057073 -0.66693616
0.74102318 0.001513752 -0.67147774
0.7354366 0.012161265 -0.6774844
0.73043811 0.02157674 -0.68263798
0.72735387 0.028136629 -0.68568555
0.72044125 0.031662697 -0.69279281
0.71456902 0.035335951 -0.69867195
0.70414839 0.034585179 -0.70921006
0.69867501 0.034116999 -0.71462526
0.68763544 0.043718767 -0.7247387
0.67662149 0.056102814 -0.7341906
0.66457269 0.07418512 -0.74353192
0.64796128 0.11080096 -0.75357105
0.6227649 0.14889058 -0.76811163
0.59739272 0.19251968 -0.77849734
0.56651677 0.22438612 -0.79291211
0.53987364 0.26122165 -0.8001873
0.50642998 0.30168712 -0.80778312
0.47726464 0.33579296 -0.81207238
0.41959418 0.40408692 -0.81280655
0.36369164 0.46153797 -0.8091422
0.31194819 0.5172989 -0.79692545
0.26490225 0.55254933 -0.79026327
0.80579114 -0.097594807 -0.58410263
0.80338244 -0.085301541 -0.5893219
0.79498272 -0.070466484 -0.60252548
0.79053263 -0.056571385 -0.60980147
0.78311455 -0.044732441 -0.62026657
0.77683201 -0.032260787 -0.62888096
0.77019035 -0.022826754 -0.63740549
0.76400048 -0.016195918 -0.64501237
0.75775203 -0.0076781763 -0.65249743
0.75093076 0.0035331017 -0.66037149
0.74453979 0.012651211 -0.6674582
0.73934207 0.01828232 -0.67308176
0.73309525 0.018409119 -0.6798768
0.72447154 0.015636052 -0.68912735
0.71332607 0.016503086 -0.70063797
0.7033786 0.022485017 -0.71045968
0.69167316 0.038225901 -0.72119833
0.68000525 0.058957085 -0.73083303
0.66403297 0.086327751 -0.74270299
0.64425864 0.12316808 -0.75482477
0.61716442 0.1656593 -0.76919769
0.59394356 0.19853237 -0.77962552
0.56670047 0.23492609 -0.78972166
0.53154421 0.27795251 -0.80012696
0.50358251 0.31504946 -0.8044554
0.45105137 0.37320784 -0.81072102
0.39288619 0.44135752 -0.80674902
0.33405995 0.49814309 -0.80016087
0.2822338 0.55040186 -0.78574924
0.24048606 0.58587282 -0.77389889
0.82890182 -0.12082368 -0.54618991
0.82473561 -0.10188775 -0.55626438
0.81951805 -0.085821302 -0.56659057
0.8105415 -0.075136127 -0.58084167
0.80474001 -0.062769651 -0.59029949
0.79470827 -0.049476711 -0.60497175
0.78637212 -0.038732795 -0.61653764
0.77825094 -0.030778253 -0.62719867
0.77181279 -0.017753621 -0.63560194
0.76446693 -0.0048201279 -0.64464492
0.75425904 0.0035599644 -0.6565673
0.74571178 0.0046297603 -0.66625259
0.73992882 6.7276032e-05 -0.67268517
0.72886049 0.00086206158 -0.6846617
0.71960686 0.0062106191 -0.69435394
0.7105635 0.015743725 -0.70345693
0.69627008 0.03932715 -0.71670171
0.68302309 0.06837763 -0.72718908
0.66581822 0.091521648 -0.7404795
0.64391142 0.12557227 -0.75472491
0.62062534 0.16069153 -0.76746493
0.58766013 0.21121778 -0.78105225
0.55965668 0.24590991 -0.79139921
0.51917027 0.29958038 -0.80044602
0.47835287 0.34576402 -0.80723341
0.4249606 0.41141731 -0.80631525
0.35668923 0.48027017 -0.80131976
0.29219617 0.54019675 -0.7891824
0.24951509 0.58306868 -0.7731579
0.2200833 0.60777761 -0.76300047
0.85507445 -0.14122685 -0.49890146
0.85309291 -0.12318608 -0.50700856
0.84519069 -0.10649749 -0.52374705
0.83628612 -0.09230697 -0.54046734
0.82173831 -0.078077858 -0.56449092
0.80928283 -0.067423741 -0.58353693
0.79678137 -0.050364801 -0.60216512
0.78712649 -0.034541449 -0.61582366
0.77945722 -0.018370333 -0.62618605
0.76947517 -0.010214838 -0.63859504
0.76129363 -0.0076085386 -0.64836265
0.7556669 -0.009164805 -0.65489201
0.74743375 -0.010678954 -0.66425052
0.73953335 -0.0079698391 -0.67307274
0.73214235 -0.0010377018 -0.68115087
0.71975066 0.018385586 -0.69398916
0.70514306 0.040510811 -0.70790687
0.69014529 0.067191968 -0.72054474
0.66827472 0.0937133 -0.73798829
0.64491241 0.12993409 -0.75313022
0.61973236 0.17039807 -0.76609157
0.58763633 0.2175034 -0.77934319
0.54923494 0.26144358 -0.79371798
0.50764016 0.31867011 -0.80046913
0.45738962 0.3859193 -0.8011623
0.4019043 0.44618222 -0.79962139
0.32735694 0.52478613 -0.78577156
0.26970726 0.57018426 -0.7759819
0.23147267 0.59928098 -0.76634373
0.20562076 0.62169177 -0.75579061
0.88429287 -0.15522613 -0.44037594
0.88066535 -0.13167566 -0.45507149
0.87220598 -0.11601752 -0.47518066
0.86031439 -0.10554479 -0.4987178
0.84450613 -0.094206619 -0.52719494
0.82890094 -0.080491725 -0.55357413
0.81466159 -0.061207712 -0.57669759
0.80405954 -0.040547063 -0.59316455
0.79183529 -0.025488558 -0.6102026
0.78061887 -0.01938505 -0.62470665
0.77243267 -0.01847574 -0.63482786
0.76618994 -0.021712395 -0.64224727
0.75615599 -0.017228078 -0.65416459
0.75022043 -0.012039337 -0.66107817
0.74432838 0.00052223559 -0.66781359
0.73254892 0.015962632 -0.68052721
0.71769787 0.040719343 -0.69516308
0.69721286 0.068469687 -0.71358681
0.67686752 0.096977655 -0.72968877
0.65311307 0.13933478 -0.74433133
0.62257408 0.17583492 -0.76255072
0.58592764 0.2272298 -0.77785308
0.5525346 0.27345717 -0.78735424
0.50038799 0.34622139 -0.79356324
0.44436693 0.41882042 -0.79191382
0.36541468 0.49666255 -0.78727277
0.29889369 0.55135057 -0.77889351
0.24774919 0.59458755 -0.76490913
0.21634741 0.61686837 -0.75674779
0.19479896 0.63098202 -0.75094278
0.91301106 -0.16643487 -0.37243823
0.90982959 -0.14350955 -0.38937786
0.9046523 -0.13258781 -0.40499961
0.89171368 -0.13197307 -0.43293165
0.87948897 -0.1217295 -0.46008812
0.86262077 -0.094766645 -0.49689505
0.84333589 -0.070930118 -0.53268517
0.83065489 -0.051326299 -0.55441686
0.81610073 -0.03669382 -0.57674359
0.79396409 -0.030118607 -0.60721816
0.78536309 -0.0277121 -0.61841479
0.7752141 -0.025676593 -0.63117653
0.76856004 -0.019482414 -0.63948096
0.76358636 -0.010363321 -0.64562255
0.7573878 -0.0027110851 -0.6529597
0.7453357 0.013894686 -0.66654454
0.72676315 0.042579451 -0.68556714
0.70639264 0.065857141 -0.70474979
0.68529071 0.097832027 -0.72166858
0.66116554 0.14178004 -0.73672149
0.6259163 0.1852554 -0.75756796
0.5926054 0.23304933 -0.7710427
0.54453321 0.29624246 -0.78468082
0.48594511 0.37898515 -0.78754531
0.41119172 0.45722953 -0.78858261
0.32481097 0.53711042 -0.77846659
0.26964895 0.58098132 -0.76795192
0.23147696 0.6097263 -0.75805822
0.20215682 0.63003722 -0.74979045
0.17895314 0.64655167 -0.74158392
0.93001294 -0.17301447 -0.32425596
0.92969024 -0.1509698 -0.33598239
0.92878892 -0.13728752 -0.34424306
0.92495033 -0.13693023 -0.35456593
0.91221644 -0.13804578 -0.3857519
0.89510168 -0.11353858 -0.43116351
0.87990514 -0.093745238 -0.46580981
0.86755505 -0.068076825 -0.49265991
0.83297682 -0.053486598 -0.55071663
0.81802235 -0.045143231 -0.57341218
0.80331494 -0.035690899 -0.59448404
0.7893209 -0.028996024 -0.61329581
0.78278157 -0.01950627 -0.62199077
0.77431759 -0.013350979 -0.63265633
0.76725563 -0.0058347573 -0.64131486
0.75385539 0.011819708 -0.65693405
0.74008449 0.034810966 -0.67161234
0.72288397 0.064462499 -0.68795592
0.69317856 0.10461634 -0.71313316
0.65753066 0.15082777 -0.73817641
0.62775869 0.20076496 -0.75207211
0.58085682 0.26481201 -0.7697272
0.52327948 0.33758922 -0.78243984
0.45605298 0.41881918 -0.78524275
0.38332438 0.49358697 -0.78066274
0.3009605 0.56198264 -0.7704533
0.24906917 0.59659805 -0.76291239
0.21822041 0.62015886 -0.75351367
0.18877303 0.64363608 -0.74168547
0.16295788 0.66019418 -0.73320418
0.94623256 -0.18411141 -0.26598296
0.94942808 -0.15388117 -0.27369126
0.9482364 -0.14827693 -0.28082322
0.94535876 -0.14426894 -0.29237525
0.94062426 -0.14782825 -0.30556965
0.93281374 -0.13862918 -0.33262664
0.91795177 -0.1169116 -0.37907286
0.89212816 -0.093322085 -0.44203883
0.86888099 -0.075239646 -0.48926968
0.84380996 -0.05979592 -0.5333003
0.82375602 -0.044351487 -0.56520701
0.80955043 -0.035006337 -0.58600568
0.80100139 -0.024495502 -0.59816114
0.78947392 -0.018459884 -0.61350645
0.77959171 -0.0074539533 -0.62624372
0.76551235 0.011624487 -0.64331619
0.75171812 0.033359827 -0.65864025
0.73075124 0.064561389 -0.67958403
0.70435472 0.10970961 -0.70131892
0.66183042 0.1669393 -0.7308295
0.62727298 0.21898556 -0.74737804
0.58363892 0.28682705 -0.75966825
0.51823072 0.36994611 -0.77108806
0.4367476 0.45351814 -0.7768995
0.35284069 0.52633371 -0.77361248
0.28338588 0.57955124 -0.76407644
0.2370492 0.6100961 -0.75603599
0.20122429 0.63541146 -0.74549384
0.17104221 0.66058003 -0.73101203
0.14243337 0.67839797 -0.72075581
0.96364797 -0.18583245 -0.19196063
0.96338957 -0.16172866 -0.21383259
0.96351272 -0.15455012 -0.21853489
0.96136475 -0.15839844 -0.22513939
0.95689643 -0.1511406 -0.24800352
0.95340692 -0.15052192 -0.26145438
0.94244058 -0.13689426 -0.30506673
0.92771015 -0.12711275 -0.35099321
0.91108426 -0.098216167 -0.40034866
0.89276613 -0.077549962 -0.44379572
0.85165416 -0.050748357 -0.52164145
0.84066072 -0.042352101 -0.53990355
0.82862774 -0.035164684 -0.55869448
0.81347077 -0.025256225 -0.58105717
0.79735423 -0.011132497 -0.6034089
0.78784316 0.0073763051 -0.61583176
0.76158667 0.040895589 -0.64677143
0.74254943 0.073765793 -0.66571687
0.70468333 0.13146465 -0.6972363
0.67603636 0.18035553 -0.71445554
0.63218713 0.24811765 -0.73401435
0.57657462 0.32353768 -0.75025668
0.50046725 0.4102147 -0.76240175
0.41031848 0.4925642 -0.7674759
0.33649752 0.55008352 -0.76431508
0.2630869 0.5983653 -0.75679869
0.22099231 0.62521665 -0.74850954
0.18172954 0.65326443 -0.73499657
0.15691986 0.67687821 -0.71917456
0.12458685 0.69553808 -0.70760505
0.97230698 -0.19309578 -0.13165549
0.974223 -0.17208954 -0.14585863
0.97183026 -0.16561248 -0.1676856
0.97050271 -0.16375179 -0.17694585
0.97128119 -0.15589958 -0.17974472
0.96750059 -0.15477376 -0.19996924
0.96311941 -0.15736257 -0.21826135
0.96015776 -0.13878408 -0.24256144
0.95186918 -0.10749035 -0.28703812
0.92258722 -0.083991063 -0.37653461
0.8984381 -0.067048424 -0.43395103
0.88064549 -0.056058701 -0.47044761
0.86275654 -0.044656758 -0.50364365
0.85006934 -0.031286824 -0.52574066
0.82960378 -0.0096433579 -0.55826927
0.81543043 0.0093558422 -0.57877947
0.78688918 0.050655027 -0.61501177
0.76192777 0.092187498 -0.6410675
0.72698739 0.15435876 -0.66907601
0.68631428 0.22119769 -0.69285228
0.64551072 0.28620913 -0.70809621
0.56886141 0.37361211 -0.73267365
0.48683073 0.44877715 -0.74939636
0.38882161 0.52287063 -0.75856711
0.32509118 0.57121114 -0.75368001
0.2600026 0.61371471 -0.74548837
0.20395157 0.65483722 -0.7277307
0.16631978 0.67777198 -0.71621427
0.13626324 0.69769 -0.7033214
0.10322751 0.71574771 -0.69068755
0.97761491 -0.20003479 -0.065231686
0.9809735 -0.17224362 -0.08957187
0.97968975 -0.16687353 -0.11118103
0.97762817 -0.16123455 -0.13507993
0.97871529 -0.15734649 -0.13175151
0.97686031 -0.16106611 -0.14071831
0.97718435 -0.15685796 -0.14320029
0.97886345 -0.14367833 -0.14554338
0.97360497 -0.11451584 -0.19743222
0.96061326 -0.11386496 -0.25348952
0.94569104 -0.08320829 -0.31423692
0.93051773 -0.075419176 -0.35839742
0.90630925 -0.043760574 -0.42034337
0.89409984 -0.031193802 -0.44678005
0.87272717 -0.011310938 -0.4880772
0.84243591 0.021117374 -0.53838258
0.82737812 0.070930431 -0.55714839
0.79742186 0.12273663 -0.590808
0.75473358 0.18870319 -0.62830592
0.70690331 0.26578599 -0.6554735
0.64940412 0.33862419 -0.68088762
0.56556525 0.41720321 -0.7113912
0.48394463 0.49291326 -0.72307269
0.38015918 0.55983177 -0.73625226
0.30735903 0.61198147 -0.72870372
0.24298006 0.65074953 -0.71936482
0.18733357 0.68595644 -0.70311442
0.14891774 0.7074838 -0.69086191
0.12241189 0.72164103 -0.68135861
0.082025765 0.74279827 -0.6644716
0.97966379 -0.19957488 0.020705674
0.98397273 -0.17795914 0.011323178
0.98497391 -0.17055119 -0.027178963
0.98628244 -0.16113084 -0.035830025
0.98681307 -0.15591562 -0.043477391
0.98613277 -0.16179247 -0.036950792
0.98693034 -0.15480801 -0.044754624
0.98779105 -0.14316442 -0.061422973
0.9875135 -0.11838905 -0.1039284
0.98123998 -0.11630378 -0.15375804
0.97700464 -0.089948546 -0.1933163
0.9680386 -0.088154005 -0.23479809
0.95537906 -0.053473322 -0.29050209
0.9378847 -0.028906853 -0.34574076
0.92431542 -0.0034611847 -0.3816137
0.89973353 0.046027021 -0.43400587
0.86923701 0.095127758 -0.48515743
0.82610959 0.16879458 -0.53763495
0.80011778 0.23605265 -0.55144419
0.7406774 0.31858828 -0.59152219
0.66702298 0.39261224 -0.63319506
0.57709238 0.4716879 -0.66668952
0.48045901 0.54610706 -0.68624065
0.37334509 0.61134604 -0.69776032
0.29140591 0.65114007 -0.7007847
0.22804794 0.6805101 -0.69634772
0.17771726 0.70961687 -0.68180677
0.13505407 0.73198876 -0.66779701
0.096836338 0.74974906 -0.65459841
0.056881328 0.76388108 -0.6428454
0.9707824 -0.20188116 0.12971327
0.97836767 -0.18595093 0.090658469
0.98134797 -0.17399832 0.08173587
0.98440546 -0.16229286 0.067874245
0.9865361 -0.15291582 0.057993788
0.9868177 -0.15943793 0.027755595
0.98773985 -0.15463736 0.021383935
0.98957991 -0.14160033 0.02609509
0.99073332 -0.13512221 -0.013764932
0.99302603 -0.1138396 -0.030657073
0.99264825 -0.10689588 -0.056769056
0.98822869 -0.08722402 -0.12568223
0.98650623 -0.044007182 -0.1576985
0.98285235 -0.025004981 -0.18269103
0.97037696 0.014448658 -0.24116342
0.95623202 0.059047003 -0.28658989
0.92581089 0.12797333 -0.35566421
0.878595 0.21566314 -0.42609887
0.84832585 0.28486114 -0.44631534
0.77852103 0.37230266 -0.50526799
0.70731655 0.45292317 -0.54273742
0.60319895 0.5502622 -0.57737556
0.48690237 0.60792148 -0.62718224
0.36447158 0.66240326 -0.65450927
0.28331073 0.69166196 -0.66433332
0.21771282 0.72018492 -0.65873728
0.15608618 0.74484794 -0.64872078
0.11640572 0.76152147 -0.63760078
0.072063353 0.78007946 -0.62151662
0.02905803 0.79126881 -0.61077763
0.95584862 -0.20223337 0.21320199
0.96244788 -0.18062175 0.20265701
0.96375192 -0.16944722 0.20608222
0.96865641 -0.14913934 0.19865099
0.96989782 -0.14652774 0.19449378
0.97197742 -0.14707507 0.1833816
0.97582977 -0.14202949 0.16608395
0.98107528 -0.13552136 0.13829409
0.98344886 -0.1262008 0.13000651
0.98945102 -0.11226104 0.09156496
0.99413707 -0.095421403 0.050855102
0.99763917 -0.06578526 0.019707708
0.99936324 -0.035026771 -0.0067995037
0.99818986 -0.011131449 -0.059102332
0.99699551 0.029214204 -0.071739023
0.98490904 0.10896115 -0.13446801
0.9628086 0.18862886 -0.19343928
0.92520246 0.27676167 -0.25962161
0.87877973 0.35921719 -0.31418021
0.81692762 0.44358177 -0.368598
0.72671512 0.54172585 -0.42239584
0.62665965 0.62728472 -0.46239762
0.49809653 0.68291481 -0.53434747
0.36883463 0.72485553 -0.58184661
0.2830753 0.74808514 -0.60019746
0.20008002 0.76590521 -0.61102962
0.14171736 0.7886777 -0.59825051
0.099127999 0.80270082 -0.5880859
0.055198825 0.8069422 -0.58804539
0.015660026 0.81746235 -0.57576912
0.93550529 -0.19480528 0.29475541
0.93669664 -0.18094718 0.29976246
0.93851563 -0.15525605 0.30835688
0.93621988 -0.14283893 0.32107535
0.93899155 -0.1268594 0.31968979
0.94314294 -0.12633907 0.30744079
0.94645232 -0.12005297 0.29969199
0.94723323 -0.12540027 0.29499827
0.96433934 -0.11598008 0.2379039
0.97164745 -0.10101898 0.21376716
0.97969015 -0.081078658 0.18339428
0.98323376 -0.036395596 0.17868052
0.98518019 -0.030905149 0.16871533
0.9864237 0.004820103 0.16414948
0.98939903 0.062610205 0.13103254
0.98772718 0.13440478 0.079563682
0.97293452 0.23052232 -0.016058838
0.94495504 0.3210257 -0.063265121
0.90119325 0.41761339 -0.11597321
0.83002565 0.52425818 -0.19029132
0.73767709 0.62996276 -0.24285681
0.63684378 0.69564229 -0.33243317
0.51649942 0.76176391 -0.39108067
0.40312322 0.79951259 -0.44527665
0.29279295 0.82200918 -0.48843956
0.19304928 0.81757114 -0.54250291
0.13277995 0.82775958 -0.54514545
0.080203627 0.83885945 -0.5384071
0.038677655 0.84223947 -0.53771434
0.0082298055 0.84516121 -0.53444812
0.91199805 -0.18408509 0.3665682
0.90973069 -0.16093416 0.38274048
0.90807607 -0.1386051 0.39520436
0.90232746 -0.11796307 0.41459604
0.90287279 -0.10373355 0.41720507
0.90067957 -0.10420368 0.42180317
0.89447874 -0.10184186 0.43535735
0.89775892 -0.10081776 0.42879446
0.90059382 -0.091493593 0.42492317
0.91719348 -0.068910911 0.39243777
0.92434566 -0.039728478 0.37948222
0.92754528 -0.018753107 0.37323997
0.93905783 0.0087294647 0.34364834
0.93761451 0.028827516 0.34647945
0.94222465 0.091689674 0.32218895
0.94947978 0.16262476 0.26840516
0.95445708 0.23202745 0.18754985
0.92535521 0.36475305 0.10330994
0.87355692 0.48596224 0.027184622
0.81583933 0.57372421 -0.072434179
0.74261104 0.6681325 -0.046128116
0.62795064 0.76549768 -0.14032563
0.509395 0.8257767 -0.24209415
0.4017399 0.86043775 -0.31345165
0.29979281 0.87737627 -0.37461335
0.20458078 0.87626353 -0.43624413
0.12704418 0.87289058 -0.47108578
0.067649474 0.87575383 -0.47799454
0.020042454 0.88343694 -0.46812122
-0.017662177 0.87805813 -0.47822795
0.89143453 -0.16795433 0.42087506
0.88562517 -0.13801181 0.44341945
0.88042629 -0.1180196 0.45926128
0.87121031 -0.096008311 0.48143015
0.86726076 -0.078417804 0.49163953
0.86917086 -0.076025781 0.48863289
0.85824602 -0.071480206 0.50823651
0.84316828 -0.059687201 0.53432638
0.83844364 -0.049800787 0.54270816
0.837678 -0.02363699 0.54565269
0.84161301 0.0026322643 0.54007463
0.84819519 0.024803511 0.52910273
0.85684571 0.045330701 0.51357624
0.8561558 0.07336398 0.51148311
0.86685179 0.11004877 0.48626869
0.87642852 0.17578083 0.4483014
0.86898235 0.25330196 0.42509738
0.86025957 0.38223671 0.33741454
0.81744072 0.50563884 0.27589858
0.76048322 0.61527065 0.20762297
0.70109732 0.70498377 0.10705341
0.60667724 0.79407848 0.037176398
0.51379348 0.85745084 -0.028183693
0.40999533 0.89148982 -0.19274267
0.31108919 0.91574339 -0.25423919
0.21083644 0.93200902 -0.29480025
0.13350346 0.92478687 -0.35629492
0.066337458 0.92366268 -0.37742097
0.0051347596 0.91844344 -0.39551899
-0.045583816 0.92115877 -0.38650825
0.86980231 -0.14551434 0.47145468
0.86251651 -0.11436334 0.4929364
0.8544049 -0.093644549 0.51109977
0.84379228 -0.071781266 0.53184775
0.8394848 -0.057277049 0.540356
0.83502921 -0.047626932 0.5481404
0.82187545 -0.038822977 0.56834279
0.80104594 -0.018027773 0.59833134