# vtk DataFile Version 2.0
Grain example
ASCII
DATASET UNSTRUCTURED_GRID
POINTS 900 float
-15.78342 -5.4880363 -9.8591839
-15.778633 -4.7922073 -9.8973208
-15.726207 -4.1605053 -9.9287556
-15.663513 -3.5734336 -9.9419682
-15.657846 -3.0926267 -9.8682748
-15.65655 -2.6195008 -9.7747471
-15.607861 -2.191445 -9.7382615
-15.549614 -1.7715847 -9.7131809
-15.493096 -1.3464318 -9.6909108
-15.421792 -0.9495505 -9.7078031
-15.349256 -0.57493202 -9.7205391
-15.278812 -0.18264013 -9.7257476
-15.198652 0.21353786 -9.7313173
-15.117815 0.63013328 -9.7261617
-15.009353 1.0908351 -9.7155625
-14.868188 1.5651881 -9.7140238
-14.671102 2.1141247 -9.7114087
-14.439311 2.7465996 -9.6867067
-14.189134 3.3893308 -9.6643535
-13.904763 4.0062767 -9.6568201
-13.628983 4.6155069 -9.6348054
-13.303692 5.2773886 -9.6050559
-12.952264 5.9235257 -9.5770328
-12.582138 6.5843248 -9.5514726
-12.211086 7.2445985 -9.5246753
-11.800571 7.9193208 -9.4862081
-11.386784 8.599287 -9.4197131
-10.976614 9.2309383 -9.3399429
-10.567211 9.8698446 -9.164044
-10.177434 10.489265 -8.9005978
-15.06316 -5.5676751 -10.600923
-15.076065 -4.8216187 -10.655112
-15.044467 -4.1696335 -10.678608
-15.043271 -3.6171519 -10.655657
-15.037253 -3.1149811 -10.583999
-15.026589 -2.6269869 -10.492557
-14.965449 -2.2001401 -10.464616
-14.905088 -1.7742433 -10.449798
-14.844606 -1.3368677 -10.448406
-14.804043 -0.92563571 -10.457007
-14.758383 -0.5517932 -10.45479
-14.707886 -0.15049942 -10.44963
-14.627895 0.27026015 -10.470517
-14.524065 0.71862893 -10.501093
-14.390762 1.207137 -10.511176
-14.242869 1.7097117 -10.516623
-14.066993 2.2816168 -10.494621
-13.835761 2.9516956 -10.450519
-13.598269 3.6099636 -10.409341
-13.340506 4.2409856 -10.375998
-13.050496 4.8704156 -10.350517
-12.761853 5.5090205 -10.315595
-12.424812 6.1782648 -10.271791
-12.078072 6.882222 -10.207472
-11.700792 7.5568475 -10.149954
-11.308674 8.2417134 -10.062554
-10.913148 8.9332058 -9.9532368
-10.558835 9.5642887 -9.7912476
-10.175706 10.197492 -9.5255983
-9.7808038 10.8049 -9.1256967
-14.388216 -5.6508619 -11.277324
-14.397012 -4.904211 -11.338611
-14.44124 -4.2614508 -11.347076
-14.429901 -3.6859162 -11.326176
-14.423404 -3.1581384 -11.256891
-14.39315 -2.660929 -11.190632
-14.362238 -2.2113957 -11.154721
-14.307641 -1.7506521 -11.139029
-14.258241 -1.3242524 -11.150423
-14.220317 -0.91583916 -11.162044
-14.197841 -0.53331744 -11.153529
-14.16147 -0.1190838 -11.143315
-14.087184 0.33356667 -11.150665
-13.971234 0.79093054 -11.179148
-13.83508 1.2936845 -11.199515
-13.68913 1.8196888 -11.222397
-13.503673 2.4322181 -11.205207
-13.282425 3.1147332 -11.162978
-13.04357 3.7952754 -11.12266
-12.778448 4.4732536 -11.073195
-12.507557 5.1253228 -11.013397
-12.241272 5.7781573 -10.94729
-11.940537 6.4396525 -10.875199
-11.599407 7.1452581 -10.793705
-11.229897 7.8592758 -10.689415
-10.868298 8.5438304 -10.548886
-10.510898 9.2148336 -10.381502
-10.179641 9.8342142 -10.16171
-9.8077906 10.467617 -9.7940866
-9.4164535 11.082337 -9.2771276
-13.757708 -5.7296048 -11.851477
-13.793238 -5.039742 -11.92784
-13.829549 -4.3711364 -11.965997
-13.823807 -3.7679466 -11.967659
-13.815756 -3.223798 -11.898307
-13.83504 -2.7219031 -11.797513
-13.795293 -2.2499663 -11.777484
-13.74825 -1.7806333 -11.772374
-13.706136 -1.3457938 -11.793998
-13.66365 -0.93273082 -11.812614
-13.633836 -0.5226449 -11.82248
-13.580003 -0.090129583 -11.82896
-13.51107 0.38203963 -11.833133
-13.425627 0.8636395 -11.841936
-13.298818 1.3874063 -11.852117
-13.159667 1.9376094 -11.849714
-12.989879 2.5741267 -11.812348
-12.807816 3.2773665 -11.742677
-12.584741 3.9737613 -11.67526
-12.33186 4.672169 -11.600856
-12.071568 5.3243974 -11.53004
-11.799078 5.9838043 -11.462943
-11.529114 6.6387994 -11.374052
-11.177704 7.3565298 -11.2748
-10.829757 8.064538 -11.12984
-10.48726 8.7711815 -10.954908
-10.143007 9.4480305 -10.762036
-9.8210954 10.05956 -10.498097
-9.4425401 10.720335 -10.002716
-9.0515729 11.359473 -9.4278523
-13.148081 -5.8155122 -12.371712
-13.190082 -5.1521035 -12.471578
-13.247408 -4.49177 -12.523196
-13.26219 -3.8396011 -12.550482
-13.251513 -3.2996547 -12.520161
-13.244601 -2.7807377 -12.449319
-13.216365 -2.2909429 -12.403122
-13.187574 -1.8515485 -12.411574
-13.154348 -1.3959536 -12.422404
-13.121888 -0.93568132 -12.416386
-13.081459 -0.49063612 -12.416847
-13.041812 -0.055928574 -12.417099
-12.988435 0.42206011 -12.411083
-12.918406 0.94244045 -12.407225
-12.81826 1.486111 -12.392347
-12.685863 2.0497731 -12.381715
-12.515668 2.6943027 -12.338642
-12.330358 3.4047346 -12.265689
-12.124863 4.1304898 -12.187266
-11.896054 4.8414712 -12.102024
-11.644605 5.495405 -12.024264
-11.3775 6.1621056 -11.946486
-11.129143 6.8190442 -11.824027
-10.829896 7.5234709 -11.673115
-10.491519 8.2410727 -11.504687
-10.160517 8.9282126 -11.305344
-9.838101 9.6214671 -11.068634
-9.5052009 10.271086 -10.727842
-9.1125035 10.959608 -10.16877
-8.7201215 11.612275 -9.5814393
-12.577668 -5.921152 -12.872083
-12.631343 -5.2483495 -12.96337
-12.673387 -4.5807415 -13.027049
-12.715072 -3.9248163 -13.095034
-12.689646 -3.35267 -13.129322
-12.675134 -2.82505 -13.068213
-12.667443 -2.3237572 -13.012698
-12.643235 -1.8631945 -12.998819
-12.6192 -1.3809679 -12.987682
-12.590181 -0.91735392 -12.974178
-12.565616 -0.46130551 -12.959322
-12.526259 -0.015653476 -12.961212
-12.471251 0.47942852 -12.967357
-12.402297 1.0090436 -12.965941
-12.3122 1.576284 -12.942073
-12.208846 2.1590401 -12.909303
-12.048543 2.8141114 -12.855522
-11.850763 3.5422866 -12.781052
-11.656022 4.2625788 -12.691155
-11.448555 4.9855084 -12.597656
-11.224177 5.6527922 -12.506831
-10.982749 6.3322988 -12.383549
-10.738718 6.9959318 -12.248993
-10.469806 7.6778199 -12.084987
-10.148583 8.3876803 -11.882332
-9.8382722 9.0805565 -11.648699
-9.51521 9.7919506 -11.364308
-9.1994144 10.48813 -10.915964
-8.8074431 11.178386 -10.327407
-8.4157451 11.837146 -9.72941
-12.041684 -6.000405 -13.339635
-12.095548 -5.3045391 -13.421603
-12.148984 -4.6363215 -13.475323
-12.183195 -3.9687004 -13.565792
-12.183762 -3.3574176 -13.631498
-12.140665 -2.837017 -13.625095
-12.117902 -2.3297236 -13.594001
-12.085832 -1.8405003 -13.585723
-12.060921 -1.3587708 -13.573417
-12.050331 -0.90211058 -13.545759
-12.031064 -0.44598174 -13.525394
-11.991789 0.035611692 -13.519327
-11.940018 0.52675297 -13.523
-11.871899 1.0747885 -13.518665
-11.792245 1.652569 -13.497031
-11.69411 2.2450635 -13.459775
-11.558914 2.9342512 -13.380612
-11.377121 3.6691355 -13.29048
-11.188108 4.3915749 -13.189736
-11.010485 5.1185751 -13.06725
-10.814494 5.8016604 -12.94083
-10.584415 6.4961504 -12.815328
-10.333396 7.1687642 -12.672949
-10.076128 7.8362414 -12.479192
-9.7989915 8.5161864 -12.261668
-9.4913799 9.2448878 -11.980536
-9.1877174 9.9797265 -11.594937
-8.8732907 10.679395 -11.105885
-8.5026759 11.381538 -10.490719
-8.1103734 12.062913 -9.8823431
-11.53434 -6.0392966 -13.768649
-11.58794 -5.3435806 -13.850264
-11.626842 -4.6790745 -13.940202
-11.653522 -4.0041708 -14.034204
-11.647573 -3.3519222 -14.12089
-11.586228 -2.8329536 -14.164623
-11.556464 -2.3322711 -14.185091
-11.538495 -1.8251142 -14.166187
-11.502871 -1.3349833 -14.165748
-11.496568 -0.88598202 -14.136518
-11.473576 -0.40824167 -14.113941
-11.443514 0.07488311 -14.095257
-11.398281 0.58544957 -14.085002
-11.342744 1.131151 -14.065754
-11.268373 1.7039935 -14.044129
-11.175332 2.3266421 -14.004602
-11.035488 3.0243616 -13.926654
-10.897994 3.7818551 -13.797425
-10.756447 4.515264 -13.648009
-10.587111 5.2432708 -13.511668
-10.394104 5.9560109 -13.374121
-10.167067 6.6486076 -13.246138
-9.9355291 7.3176478 -13.066851
-9.6914431 7.9852875 -12.859232
-9.439468 8.6605638 -12.611884
-9.1417237 9.4090465 -12.2966
-8.8456452 10.15354 -11.817682
-8.5419246 10.861986 -11.300388
-8.1885713 11.583786 -10.660441
-7.8136212 12.266224 -10.037481
-11.016409 -6.0841837 -14.183529
-11.061628 -5.3872347 -14.315865
-11.079444 -4.710117 -14.411119
-11.08338 -4.022079 -14.514515
-11.083086 -3.339289 -14.618054
-11.024917 -2.8270112 -14.701768
-10.996089 -2.3315021 -14.735064
-10.972465 -1.8201766 -14.758441
-10.952694 -1.3154315 -14.749215
-10.927626 -0.84672978 -14.735191
-10.899991 -0.36939496 -14.725038
-10.87249 0.13020708 -14.693157
-10.844071 0.63360168 -14.660554
-10.797112 1.1646858 -14.632128
-10.735699 1.7555111 -14.59231
-10.640495 2.4002724 -14.546488
-10.53537 3.114257 -14.447157
-10.411289 3.8654624 -14.297488
-10.291094 4.6166869 -14.122148
-10.150295 5.3772921 -13.952355
-9.9684844 6.1088606 -13.806722
-9.7487186 6.7874896 -13.655734
-9.5231447 7.450449 -13.4527
-9.2813866 8.1444497 -13.220494
-9.0563841 8.8490571 -12.925085
-8.7866473 9.585788 -12.564396
-8.4928344 10.322801 -12.050757
-8.1990184 11.035259 -11.503646
-7.8622059 11.75335 -10.847531
-7.5495133 12.438912 -10.16927
-10.475321 -6.1247973 -14.606247
-10.502744 -5.4046085 -14.786041
-10.506882 -4.7272037 -14.897638
-10.506059 -4.0360877 -15.001474
-10.511164 -3.3623804 -15.132233
-10.475651 -2.8251312 -15.226179
-10.432987 -2.324383 -15.279255
-10.401534 -1.8159608 -15.316846
-10.378814 -1.3005413 -15.338785
-10.356941 -0.80488238 -15.328893
-10.328212 -0.31307247 -15.319035
-10.298625 0.1767915 -15.301739
-10.272454 0.6778426 -15.265594
-10.240184 1.1998559 -15.218025
-10.190915 1.8085163 -15.146719
-10.121973 2.4671796 -15.068506
-10.030575 3.1844096 -14.953305
-9.9233417 3.9515661 -14.787083
-9.8021595 4.7043875 -14.610675
-9.6679899 5.4794264 -14.423429
-9.5422031 6.2253719 -14.228134
-9.327596 6.9218798 -14.049043
-9.0953767 7.6061538 -13.81863
-8.8700674 8.3156983 -13.54483
-8.6588061 9.0308023 -13.22523
-8.4305829 9.750354 -12.798918
-8.1400152 10.487745 -12.283317
-7.852495 11.189301 -11.718443
-7.5678408 11.900554 -11.011416
-7.2655455 12.587623 -10.328159
-9.8997175 -6.1444753 -15.048814
-9.9429429 -5.4089021 -15.24127
-9.9337301 -4.7295654 -15.375938
-9.9309144 -4.0351962 -15.495989
-9.9435971 -3.3851956 -15.642788
-9.9227188 -2.8188253 -15.755633
-9.8738688 -2.3136153 -15.816684
[...]
POINT_DATA 900
VECTORS normals float
-0.72337528 -0.010086225 -0.6903814
-0.73427851 0.014831883 -0.6786863
-0.74017563 0.031205456 -0.67168911
-0.74432558 0.055272429 -0.66552565
-0.74858941 0.078059488 -0.65842282
-0.75444052 0.10221446 -0.64836078
-0.75297385 0.11432366 -0.64804358
-0.7607247 0.13282367 -0.63533912
-0.7646603 0.14345017 -0.62826481
-0.76961865 0.1533751 -0.61980901
-0.77017156 0.16442305 -0.61627983
-0.77706514 0.17034203 -0.60593181
-0.78165333 0.18293011 -0.59628403
-0.78471462 0.19586026 -0.5881001
-0.78681434 0.2170894 -0.57775027
-0.79340442 0.23762666 -0.5603954
-0.79513713 0.26416129 -0.54587156
-0.79873303 0.29597215 -0.52385688
-0.79896888 0.33702047 -0.49806217
-0.79518422 0.3728804 -0.47816552
-0.79003788 0.39660628 -0.46748649
-0.78646098 0.42124117 -0.45170233
-0.78776012 0.44079675 -0.43026994
-0.78744203 0.4539714 -0.41694727
-0.78443236 0.47383671 -0.40018076
-0.77468 0.5050146 -0.38056688
-0.7646025 0.54046126 -0.35111913
-0.74846363 0.5735821 -0.332875
-0.73177023 0.60501313 -0.31380158
-0.71486164 0.63583481 -0.29101019
-0.71066066 -0.039154426 -0.70244455
-0.72228041 -0.014372828 -0.69145097
-0.73446586 0.018815246 -0.67838476
-0.74143333 0.043772693 -0.66959732
-0.74369956 0.069265697 -0.66491596
-0.74837821 0.087146235 -0.65752231
-0.75379048 0.10244706 -0.64907974
-0.75600637 0.10954992 -0.64533184
-0.75949376 0.12398837 -0.63858916
-0.76275806 0.13487292 -0.63246299
-0.76413494 0.14757042 -0.62794965
-0.76318376 0.15351323 -0.62768163
-0.76866938 0.16287961 -0.61856092
-0.77198705 0.17437562 -0.61125211
-0.77438366 0.1904375 -0.60337675
-0.77885926 0.21582249 -0.58889634
-0.78680811 0.2410384 -0.56818438
-0.78643207 0.28247793 -0.5493003
-0.78474089 0.32302441 -0.52899618
-0.77958303 0.3595702 -0.51279584
-0.77658017 0.38802948 -0.49634299
-0.77619462 0.40807676 -0.48061967
-0.77933678 0.42756997 -0.45805907
-0.77699087 0.44759564 -0.44265486
-0.7736406 0.47401056 -0.42046904
-0.7651313 0.50549977 -0.39880332
-0.75093115 0.54428044 -0.37398023
-0.73432235 0.58217132 -0.34906623
-0.7182526 0.61588965 -0.32371768
-0.70120424 0.64259744 -0.30883838
-0.69984498 -0.065499204 -0.71128536
-0.7129573 -0.036084944 -0.70027835
-0.72774457 -0.0045441281 -0.68583321
-0.73007103 0.02968335 -0.68272629
-0.73484951 0.057733638 -0.67576847
-0.7365323 0.070502471 -0.67271805
-0.74305459 0.082940741 -0.66407132
-0.74641654 0.093640183 -0.658858
-0.75170903 0.11115644 -0.65005983
-0.75346684 0.11940018 -0.64655341
-0.75311008 0.13611563 -0.64365965
-0.75736864 0.14323911 -0.63708344
-0.75997131 0.14412519 -0.63377562
-0.76450525 0.15720596 -0.62515439
-0.76694246 0.17815303 -0.61649068
-0.77243184 0.19730729 -0.60367117
-0.77637096 0.23089395 -0.58646066
-0.78068684 0.27300402 -0.56213599
-0.77520568 0.31918881 -0.54513729
-0.76938535 0.34899192 -0.53502413
-0.76936703 0.37971264 -0.51370487
-0.77022276 0.39997323 -0.49676787
-0.770432 0.41906688 -0.48043467
-0.76873074 0.44040056 -0.46378917
-0.76457887 0.4688558 -0.44225941
-0.75369126 0.50369481 -0.422186
-0.73796051 0.54929483 -0.3920325
-0.72415635 0.58915097 -0.35846718
-0.70240611 0.6286948 -0.3337192
-0.6848519 0.65774321 -0.31361081
-0.6893971 -0.086510735 -0.71919923
-0.69919236 -0.057967576 -0.71257968
-0.71268547 -0.023754565 -0.70108141
-0.7231147 0.011201986 -0.69063713
-0.7263775 0.040747448 -0.686087
-0.73158744 0.06314065 -0.6788174
-0.73590039 0.068286171 -0.6736376
-0.74072398 0.080294706 -0.66699381
-0.74388371 0.095484731 -0.66145271
-0.74751691 0.107955 -0.65541147
-0.74588196 0.11509993 -0.65605801
-0.74952851 0.12382778 -0.6502874
-0.75241775 0.13985326 -0.64366808
-0.76385094 0.14405043 -0.62911146
-0.76493547 0.15861303 -0.62427208
-0.76289063 0.18649717 -0.61904499
-0.76883477 0.2231201 -0.5992583
-0.77203141 0.26541827 -0.57751246
-0.76409056 0.32156898 -0.55924861
-0.76167792 0.34884619 -0.54603395
-0.76117993 0.37308211 -0.53048548
-0.76107955 0.39459427 -0.51483326
-0.76077029 0.41406841 -0.49977587
-0.75612112 0.43584631 -0.48817912
-0.7496955 0.47009331 -0.46579924
-0.73981343 0.51078192 -0.43792456
-0.72263357 0.55759728 -0.40851681
-0.70787159 0.59646744 -0.37834429
-0.68786784 0.64009487 -0.34222272
-0.66588692 0.67317606 -0.32160319
-0.67806602 -0.09591704 -0.72871558
-0.68431398 -0.084066929 -0.72432529
-0.69596135 -0.056935678 -0.7158185
-0.71016712 -0.017514983 -0.70381524
-0.71918302 0.017789088 -0.69459293
-0.72631414 0.046882827 -0.68576219
-0.73168319 0.055278425 -0.67939974
-0.73542857 0.069251542 -0.67405419
-0.73696954 0.081220176 -0.67102845
-0.74072454 0.092784451 -0.66537072
-0.74158323 0.10700001 -0.66227284
-0.73968018 0.11936992 -0.66228699
-0.7435166 0.12649745 -0.65664409
-0.75449383 0.12715864 -0.6438709
-0.75671013 0.13976305 -0.63863611
-0.75832018 0.17508996 -0.62792835
-0.76073458 0.21920679 -0.61092657
-0.75884689 0.27779412 -0.58905164
-0.75259937 0.32064346 -0.57513647
-0.75307293 0.34734745 -0.55877627
-0.75234081 0.36639551 -0.547483
-0.75172631 0.3888854 -0.53261216
-0.75006151 0.41052841 -0.51853076
-0.74700859 0.43536356 -0.50243084
-0.73746853 0.46942049 -0.48557654
-0.72755571 0.5118727 -0.45678116
-0.7097286 0.56091565 -0.42621467
-0.69025713 0.60704747 -0.39374925
-0.66846142 0.65228083 -0.35733603
-0.65915179 0.67683194 -0.32774601
-0.67002157 -0.10852311 -0.73436628
-0.67482444 -0.097603669 -0.73149539
-0.68489227 -0.079799187 -0.72426147
-0.69304143 -0.043156326 -0.71960483
-0.70700024 -0.0063534665 -0.70718476
-0.71599565 0.023856389 -0.697697
-0.72069408 0.046203534 -0.69171184
-0.72609626 0.060184499 -0.68495405
-0.72981719 0.074167649 -0.67960726
-0.73276313 0.086100534 -0.67501474
-0.73704608 0.096188498 -0.66896252
-0.74025396 0.10562516 -0.66397846
-0.73547716 0.11618982 -0.66751275
-0.74129049 0.11520684 -0.66122295
-0.74588729 0.12790967 -0.6536752
-0.74994834 0.16607771 -0.64030905
-0.75105289 0.20541317 -0.62747509
-0.74735115 0.2684272 -0.60779363
-0.74385581 0.30740217 -0.5934496
-0.74654398 0.33296028 -0.57602912
-0.74683271 0.35806934 -0.56038134
-0.74622727 0.38388828 -0.54385169
-0.74325367 0.4097196 -0.52887034
-0.73850832 0.43432791 -0.51571768
-0.72502837 0.47038168 -0.50306554
-0.71078568 0.51528961 -0.47881138
-0.6932211 0.56601945 -0.44616868
-0.6687937 0.62225716 -0.40683045
-0.6537346 0.66472067 -0.36163174
-0.64243392 0.68753036 -0.33849764
-0.661619 -0.12067399 -0.74006627
-0.66804479 -0.1081331 -0.73622238
-0.67425582 -0.095050143 -0.73235548
-0.68401596 -0.065437519 -0.72652605
-0.69678231 -0.025547055 -0.71682757
-0.70561541 0.0071725113 -0.70855871
-0.71278092 0.028871434 -0.70079227
-0.719312 0.048542535 -0.69298908
-0.72402505 0.066088629 -0.68660033
-0.72731306 0.079391989 -0.68169834
-0.73323175 0.090903562 -0.67387517
-0.73311142 0.10558979 -0.67186192
-0.73399078 0.10735273 -0.6706213
-0.7384313 0.10561088 -0.66600717
-0.7401263 0.12374698 -0.66098392
-0.73935545 0.16269905 -0.65336249
-0.7390119 0.20676455 -0.64117847
-0.7328166 0.2730386 -0.62324133
-0.733195 0.30179349 -0.60938147
-0.73810418 0.32992662 -0.58851562
-0.73628988 0.35512293 -0.57599038
-0.734521 0.3849349 -0.55884167
-0.72967653 0.41205578 -0.54569424
-0.72183589 0.43980448 -0.53434537
-0.70991776 0.47348759 -0.52136961
-0.69266152 0.52344992 -0.49620581
-0.66859792 0.5816384 -0.46332882
-0.64577526 0.63762159 -0.42001551
-0.63463554 0.67407218 -0.37797412
-0.62656681 0.69592142 -0.35086665
-0.64811533 -0.13546077 -0.74939769
-0.65883664 -0.11820071 -0.74294204
-0.66497423 -0.10479217 -0.73947811
-0.6781627 -0.078681482 -0.73068775
-0.68918921 -0.049305563 -0.72290192
-0.70020267 -0.01618062 -0.71376075
-0.70964602 0.0091001575 -0.70449962
-0.71794458 0.032840288 -0.69532517
-0.72241693 0.050717986 -0.68959515
-0.72772444 0.068006685 -0.68248973
-0.73009388 0.08362005 -0.67821133
-0.73276876 0.096852892 -0.6735499
-0.73334876 0.10267567 -0.67205454
-0.73327053 0.1048383 -0.67180596
-0.7331642 0.12561844 -0.66834891
-0.73114937 0.16176139 -0.66276229
-0.72594703 0.20307884 -0.65708439
-0.71935568 0.26429726 -0.64239735
-0.7230131 0.2946404 -0.62485126
-0.72716275 0.32050315 -0.60705194
-0.72814157 0.35422249 -0.58680174
-0.72259189 0.38367872 -0.57502314
-0.71859011 0.41247736 -0.55990238
-0.70810506 0.44238289 -0.55034953
-0.69488062 0.47791985 -0.53733931
-0.66983805 0.53145605 -0.51852816
-0.64425062 0.59687329 -0.47820855
-0.62971423 0.64283627 -0.43614392
-0.61664193 0.67700286 -0.4017709
-0.61355053 0.70037385 -0.36473583
-0.63149586 -0.16374304 -0.7578926
-0.64739915 -0.13577503 -0.74995966
-0.6585053 -0.11840685 -0.74320293
-0.67355337 -0.091124387 -0.73349997
-0.68619018 -0.064170633 -0.7245862
-0.69433221 -0.038466546 -0.71862585
-0.70629846 -0.0043060775 -0.70790108
-0.71369861 0.020210703 -0.70016128
-0.72051586 0.038211498 -0.69238485
-0.72269074 0.055546481 -0.68893591
-0.72726588 0.079582381 -0.68172647
-0.72935203 0.097502476 -0.67715499
-0.72807506 0.10045964 -0.67809628
-0.72756092 0.1064667 -0.67773147
-0.72405027 0.1280786 -0.67775149
-0.72094994 0.16210583 -0.67376026
-0.7134258 0.20619278 -0.66970753
-0.70822486 0.26200894 -0.65556759
-0.71020802 0.28641399 -0.64309532
-0.71284442 0.31556404 -0.62631635
-0.71183715 0.34794604 -0.61009952
-0.70576749 0.38676755 -0.59355127
-0.69675109 0.41938721 -0.58193839
-0.68398441 0.45333788 -0.57153311
-0.66449521 0.49606668 -0.55889531
-0.63987825 0.55380743 -0.53277871
-0.62336942 0.60265109 -0.49821906
-0.60363758 0.65560749 -0.45365239
-0.59474458 0.68563293 -0.4197456
-0.58792172 0.71205231 -0.38383533
-0.60626295 -0.19216979 -0.77169684
-0.63157825 -0.16114479 -0.75838069
-0.64565399 -0.13800345 -0.75105657
-0.66285924 -0.11376942 -0.7400501
-0.68382109 -0.084919075 -0.72469129
-0.69131223 -0.062086558 -0.71988378
-0.70183759 -0.028650499 -0.7117606
-0.71161426 0.0044357001 -0.70255638
-0.71528468 0.027633017 -0.69828665
-0.71803304 0.054764499 -0.69385114
-0.71985459 0.070972323 -0.690487
-0.72269868 0.092221529 -0.68498307
-0.72477267 0.099955059 -0.68169903
-0.72051713 0.10950259 -0.68473662
-0.71695101 0.13199279 -0.68451381
-0.70826833 0.16944905 -0.68530504
-0.70473274 0.21180451 -0.67711935
-0.69439959 0.26009648 -0.67093891
-0.69309762 0.2850186 -0.66210277
-0.69713357 0.31097164 -0.64598872
-0.6957907 0.34782304 -0.62840626
-0.68439743 0.38923183 -0.61652148
-0.67514685 0.42658637 -0.60183121
-0.654923 0.46713306 -0.59402236
-0.63361517 0.51126812 -0.58063476
-0.61363273 0.56537166 -0.5511894
-0.59260241 0.6195729 -0.51473469
-0.57297642 0.66887095 -0.47361343
-0.57227283 0.69268525 -0.43896579
-0.56820494 0.71749733 -0.40291529
-0.58135478 -0.22493517 -0.7819404
-0.60825393 -0.18421501 -0.77206993
-0.63012662 -0.16269098 -0.75925759
-0.65371914 -0.14207205 -0.74328111
-0.67242342 -0.10473561 -0.73271904
-0.68637721 -0.073842959 -0.72348708
-0.6925581 -0.049598 -0.719655
-0.70129129 -0.013767169 -0.71274188
-0.70476964 0.015211089 -0.70927313
-0.70612854 0.043483823 -0.70674723
-0.70843914 0.063099935 -0.7029455
-0.70894865 0.085112038 -0.70010553
-0.71232762 0.096560022 -0.69517302
-0.71144956 0.11507304 -0.69325156
-0.70587062 0.14269024 -0.69381998
-0.69923484 0.17661812 -0.69273131
-0.69018269 0.21312236 -0.69153938
-0.68364602 0.25985912 -0.68198341
-0.67977564 0.27993533 -0.67789475
-0.67520877 0.31067525 -0.66900972
-0.6644393 0.35352533 -0.65843774
-0.65486157 0.39547392 -0.64401607
-0.64328086 0.44247956 -0.62482123
-0.62046774 0.48698253 -0.61470952
-0.59601389 0.53545325 -0.59837886
-0.57172478 0.58399621 -0.57626313
-0.55594455 0.62324631 -0.54999063
-0.54963055 0.67304083 -0.49489625
-0.54450958 0.70241247 -0.45839507
-0.53610571 0.72869775 -0.42613408
-0.55187929 -0.25613411 -0.79361487
-0.57840435 -0.22273401 -0.78475345
-0.60754638 -0.19738204 -0.7693684
-0.62857518 -0.17417521 -0.75799488
-0.65142289 -0.14335159 -0.74504936
-0.66646954 -0.093713568 -0.7396189
-0.68204813 -0.057036701 -0.72907967
-0.6905409 -0.024431111 -0.72288061
-0.6941393 0.0092971823 -0.71978065
-0.69441474 0.037555112 -0.71859431
-0.6967203 0.055846183 -0.71516574
-0.69697908 0.074544892 -0.7132063
-0.69880255 0.091425189 -0.70944798
-0.69678298 0.11600938 -0.70783847
-0.69399914 0.15433404 -0.70323979
-0.68571543 0.18742538 -0.70332501
-0.67563183 0.23064791 -0.7002308
-0.66631075 0.26423403 -0.69728786
-0.66052436 0.28396342 -0.69503406
-0.65181579 0.31544859 -0.68965815
-0.64036425 0.35564532 -0.68077164
-0.62665322 0.40290416 -0.6670637
-0.60776042 0.451807 -0.65306792
-0.58448796 0.51075059 -0.63048208
-0.55625471 0.5612068 -0.61288467
-0.52984568 0.59984698 -0.59953912
-0.52206494 0.63706406 -0.56709574
-0.51880438 0.68209883 -0.51534765
-0.5054623 0.71331445 -0.48547951
-0.50280669 0.73740888 -0.45101395
-0.52355132 -0.29050179 -0.80093865
-0.54824525 -0.2587412 -0.7952862
-0.57904966 -0.23266645 -0.78138839
-0.60424856 -0.20905998 -0.76888075
-0.62888067 -0.17118607 -0.75842233
-0.64768631 -0.12377614 -0.75178581
-0.66185867 -0.078326514 -0.74552535
-0.67171478 -0.028893877 -0.74024618
-0.67759359 0.0032043977 -0.73542957
-0.68466926 0.027537487 -0.7283335
-0.68482891 0.051821221 -0.72685894
-0.68526953 0.071866421 -0.72473505
-0.68555703 0.091546512 -0.72224012
-0.68587731 0.11679222 -0.71828399
-0.68318586 0.1580286 -0.71294042
-0.67588348 0.20063898 -0.70917242
-0.66535757 0.24035833 -0.70677237
-0.65143916 0.27403554 -0.70748254
-0.63890333 0.29565988 -0.71020262
-0.62541475 0.32597158 -0.70894212
-0.6121013 0.36646493 -0.70073922
-0.59516446 0.42119748 -0.68437705
-0.56951663 0.476713 -0.66962342
-0.54195457 0.53060694 -0.65172196
-0.51147649 0.58202481 -0.63217002
-0.50074824 0.61280384 -0.6113286
-0.49071431 0.64580661 -0.58492161
-0.4767884 0.69127789 -0.54296197
-0.46875795 0.72196906 -0.50894662
-0.47062524 0.74547056 -0.47200161
-0.49390233 -0.31517073 -0.8103875
-0.51830107 -0.28677602 -0.80568202
-0.54838737 -0.26436618 -0.79333588
-0.57890981 -0.23102738 -0.78197812
-0.60423334 -0.19298645 -0.77308363
-0.62779541 -0.14937703 -0.76391062
-0.64432021 -0.096672093 -0.7586211
-0.65790582 -0.043943828 -0.75181705
-0.66533709 -0.0052143837 -0.74652486
-0.66812656 0.018698127 -0.74381267
-0.67149018 0.043921171 -0.73971066
-0.67174416 0.069081487 -0.73755511
-0.67106877 0.094473523 -0.73535125
-0.67176364 0.12287041 -0.73050426
-0.66932851 0.15574115 -0.72645994
-0.66139941 0.20051244 -0.72273479
-0.6520935 0.24500673 -0.71745786
-0.63420845 0.28520253 -0.71863702
-0.61450729 0.30764846 -0.72645248
-0.59682651 0.3403821 -0.72659352
-0.57614738 0.38017948 -0.72354527
-0.5538516 0.43002124 -0.71297275
-0.5193472 0.49861981 -0.69401497
-0.49197496 0.5529833 -0.67243595
-0.47474126 0.59530787 -0.64825094
-0.46228311 0.62677079 -0.62725808
-0.44509615 0.65910912 -0.60618857
-0.43860229 0.69665726 -0.5677118
-0.43047541 0.72762344 -0.53409274
-0.43713046 0.74827638 -0.49899842
-0.47363571 -0.33802979 -0.81326815
-0.49971267 -0.31277816 -0.80774814
-0.51911033 -0.29220478 -0.8032066
-0.54441288 -0.25896094 -0.79784325
-0.56582935 -0.22107744 -0.79433111
-0.59068033 -0.16932222 -0.78894026
-0.61416976 -0.12160086 -0.77974915
-0.63500096 -0.071668491 -0.7691797
-0.64993156 -0.026537103 -0.75952929
-0.65129417 0.013076444 -0.75871266
-0.65568926 0.033833782 -0.75427241
-0.65166604 0.066497225 -0.75558553
-0.65436195 0.092628499 -0.75048677
-0.64996573 0.12559867 -0.74951286
-0.64750301 0.16001673 -0.74507349
-0.64357825 0.20101699 -0.73851148
-0.63118903 0.25349607 -0.73303489
-0.6134883 0.30065989 -0.73022992
-0.59392617 0.32911751 -0.73412081
-0.57242619 0.35454778 -0.73934033
-0.55003649 0.39644743 -0.73504374
-0.52180996 0.45036175 -0.724492
-0.48711016 0.5108263 -0.70836444
-0.46035682 0.57062955 -0.68003935
-0.43598852 0.60471567 -0.66650804
-0.42687581 0.63653859 -0.64233611
-0.41180681 0.66963419 -0.6180657
-0.40133508 0.70117528 -0.58930754
-0.39681429 0.7291217 -0.55760198
-0.40258235 0.75011907 -0.52464162
-0.44550396 -0.36266064 -0.81853741
-0.47213241 -0.34059559 -0.81307173
-0.48839623 -0.32035016 -0.81169261
-0.51626081 -0.28264052 -0.80844859
-0.54022637 -0.24360015 -0.80549018
-0.55601193 -0.20091822 -0.80652502
-0.57481838 -0.15394133 -0.80367026
-0.59775698 -0.092481499 -0.79632516
-0.61179241 -0.045965868 -0.7896817
-0.62310821 -0.0080351868 -0.78209436
-0.62761532 0.032375393 -0.77785015
-0.63067346 0.067062536 -0.77314526
-0.62466242 0.091461159 -0.77552029
-0.625379 0.12271318 -0.77061183
-0.61867924 0.16183716 -0.76879434
-0.61306116 0.20534748 -0.76288166
-0.60240567 0.26306732 -0.75359339
-0.58585456 0.3113071 -0.74823948
-0.56852811 0.34482392 -0.74690847
-0.54725393 0.37642365 -0.74754155
-0.5209135 0.41631725 -0.74520405
-0.48103224 0.47526744 -0.73670132
-0.44261217 0.53239059 -0.72156408
-0.41623577 0.57631172 -0.70328699
-0.39150719 0.6157523 -0.6837918
-0.38112453 0.64943123 -0.65801456
-0.36615374 0.68200592 -0.63308717
-0.36607455 0.70644859 -0.60573906
-0.36152568 0.72950591 -0.58062063
-0.36363937 0.75244236 -0.54917839
-0.40846145 -0.39415729 -0.82328566
-0.43603175 -0.36418171 -0.82295078
-0.45904062 -0.34017633 -0.82070809
-0.48652686 -0.30921374 -0.81711595
-0.50453748 -0.27430316 -0.81865726
-0.52719159 -0.22662978 -0.81896762
-0.55324718 -0.15990967 -0.81752459
-0.56672823 -0.11483467 -0.8158628
-0.57487495 -0.062563701 -0.81584593
-0.58556168 -0.021437253 -0.81034435
-0.59322722 0.028962807 -0.80451391
-0.59988611 0.065983571 -0.79735991
-0.60287908 0.08856155 -0.79290205
-0.59733815 0.12900028 -0.79154662
-0.59670663 0.16502889 -0.78530673
-0.58988678 0.20778323 -0.78029464
-0.57770234 0.26851181 -0.77081867
-0.56188244 0.32465016 -0.76084847
-0.5441248 0.36207907 -0.75685332
-0.51746108 0.40141921 -0.75570937
-0.48576752 0.44177762 -0.75422971
-0.43680006 0.48846243 -0.75538742
-0.39839906 0.55182405 -0.7326448
-0.36342051 0.59798898 -0.71437715
-0.35541084 0.62164555 -0.69802574
-0.34397413 0.65314175 -0.67460185
-0.33956628 0.68306172 -0.64662309
-0.33532257 0.71047315 -0.61869757
-0.33481632 0.72925817 -0.59672486
-0.33407579 0.74555147 -0.57666834
-0.3677137 -0.4170778 -0.83116349
-0.40294627 -0.3899163 -0.82800941
-0.42783399 -0.36312037 -0.82770869
-0.45892418 -0.33002814 -0.82490607
-0.48639041 -0.28806005 -0.82489137
-0.50998728 -0.23940788 -0.82619419
-0.52905176 -0.18240259 -0.8287542
-0.55261391 -0.13029202 -0.82319005
-0.55688966 -0.063377108 -0.82816499
-0.56196758 -0.023181719 -0.82683435
-0.56436248 0.016519247 -0.82536181
-0.56469492 0.059324756 -0.82316476
-0.57123433 0.0892363 -0.8159217
-0.57225189 0.12990975 -0.80972294
-0.56694084 0.17622738 -0.80468751
-0.56432509 0.22461298 -0.79440934
-0.55019142 0.28443467 -0.78510275
-0.53554015 0.3348966 -0.77526835
-0.51494054 0.37941769 -0.76868619
-0.48443144 0.42688967 -0.76360421
-0.44030382 0.47574991 -0.76144243
-0.40019886 0.51975811 -0.75477969
-0.35490035 0.56448345 -0.74525444
-0.32993549 0.60588105 -0.72391348
-0.31495866 0.63091052 -0.70905074
-0.31013247 0.65666211 -0.68746835
-0.31270456 0.68491194 -0.65811206
-0.31086787 0.71025686 -0.63158243
-0.30646289 0.73186535 -0.608649
-0.30921206 0.74466999 -0.59148501
-0.29343946 -0.46733462 -0.83396141
-0.34459844 -0.42725401 -0.83588631
-0.37862441 -0.39523915 -0.8369167
-0.41890953 -0.35377909 -0.83627457
-0.45042222 -0.31112519 -0.8368518
-0.482405 -0.2607571 -0.8362363
-0.50914133 -0.19311555 -0.83873803
-0.5265958 -0.13746845 -0.83892746
-0.53168273 -0.075654194 -0.84355789
-0.53994815 -0.01964978 -0.84146888
-0.54248926 0.0090792503 -0.84001367
-0.54179918 0.054751529 -0.83872279
-0.53800507 0.086758943 -0.83846492
-0.53627829 0.1370907 -0.83283356
-0.53352132 0.18078443 -0.82623967
-0.52437203 0.23203527 -0.81926407
-0.51609768 0.29065898 -0.805705
-0.50202409 0.35442028 -0.78889675
-0.48069025 0.40485095 -0.77783841
-0.43984659 0.45950751 -0.77161378
-0.39279223 0.50546989 -0.76825416
-0.34634859 0.54736719 -0.76186076
-0.31952637 0.58608099 -0.74458846
-0.3012388 0.61361359 -0.72988598
-0.28866221 0.63229369 -0.71894285
-0.28974198 0.65271856 -0.70000576
-0.2826573 0.68523132 -0.67123981
-0.2843509 0.70885388 -0.64550038