# vtk DataFile Version 2.0
Grain example
ASCII
DATASET UNSTRUCTURED_GRID
POINTS 900 float
-5.4561103 -0.58782299 -19.615363
-5.4523716 -1.1688195 -19.515698
-5.4356291 -1.7861026 -19.384082
-5.4205029 -2.4104542 -19.235188
-5.4187188 -3.0770857 -19.031854
-5.4158553 -3.7638454 -18.806366
-5.4180523 -4.4417642 -18.532209
-5.4359358 -5.1324731 -18.220411
-5.4645568 -5.8132451 -17.886792
-5.4925405 -6.5119998 -17.541547
-5.4968084 -7.1505815 -17.160963
-5.497515 -7.6989002 -16.786607
-5.480108 -8.2277963 -16.431936
-5.4576787 -8.7865886 -16.035428
-5.4315132 -9.3620273 -15.624039
-5.4257311 -9.9202572 -15.210708
-5.4058635 -10.513457 -14.763717
-5.3564129 -11.157584 -14.282055
-5.2734378 -11.851232 -13.715232
-5.2109453 -12.573431 -13.107588
-5.1641628 -13.348268 -12.45429
-5.1380534 -14.138592 -11.771869
-5.1305516 -14.916788 -11.06049
-5.1400696 -15.720146 -10.245188
-5.1480767 -16.488676 -9.4401534
-5.14163 -17.255648 -8.6449069
-5.1397937 -17.994662 -7.8932177
-5.1354378 -18.685853 -7.1597197
-5.1325091 -19.326101 -6.4693095
-5.1255391 -19.999367 -5.7602828
-5.9403017 -0.51984457 -19.308949
-5.949483 -1.1082565 -19.200829
-5.9637811 -1.7266178 -19.070249
-5.9810219 -2.3682865 -18.91108
-6.0025224 -3.0271727 -18.72021
-6.0043087 -3.7046193 -18.491972
-6.016056 -4.4030662 -18.238919
-6.0425358 -5.1032891 -17.916796
-6.0561345 -5.7784946 -17.602922
-6.055475 -6.4600048 -17.282467
-6.0389233 -7.10056 -16.945585
-6.0022723 -7.6550423 -16.605191
-5.9860337 -8.1934972 -16.257856
-5.9733696 -8.7495603 -15.890203
-5.9577178 -9.3410718 -15.462731
-5.9501208 -9.9087431 -15.048571
-5.9215794 -10.464901 -14.645645
-5.8762353 -11.076324 -14.226503
-5.7946371 -11.749823 -13.705319
-5.7359394 -12.483883 -13.102742
-5.7055795 -13.272811 -12.436515
-5.6748891 -14.058824 -11.759342
-5.6427731 -14.827133 -11.086599
-5.6351631 -15.604115 -10.335043
-5.6338701 -16.375939 -9.5338934
-5.6446705 -17.163673 -8.7444825
-5.6400938 -17.899425 -7.9988742
-5.6285101 -18.605172 -7.2718868
-5.6258801 -19.269792 -6.5675985
-5.6173764 -19.942981 -5.8544447
-6.4284777 -0.47085631 -18.971828
-6.4774142 -1.0602903 -18.848049
-6.5193329 -1.6791793 -18.703897
-6.5586805 -2.3251196 -18.552768
-6.5738418 -2.9776502 -18.37607
-6.5425516 -3.6426935 -18.184159
-6.5364948 -4.358711 -17.964344
-6.5286861 -5.0401652 -17.696609
-6.535097 -5.6928094 -17.396964
-6.5455556 -6.3689257 -17.081319
-6.5439665 -7.0182689 -16.750096
-6.5281262 -7.6091088 -16.415128
-6.4991807 -8.1578576 -16.07672
-6.4968268 -8.7207032 -15.709838
-6.484668 -9.3147407 -15.304182
-6.4585622 -9.8776447 -14.901837
-6.4207135 -10.427304 -14.522367
-6.3836209 -11.015994 -14.134889
-6.3342813 -11.670392 -13.654423
-6.2857661 -12.4122 -13.070626
-6.2430561 -13.187622 -12.426636
-6.2053286 -13.973376 -11.75267
-6.1653395 -14.747346 -11.077765
-6.135001 -15.49802 -10.395929
-6.1395433 -16.276445 -9.6283962
-6.1445536 -17.056679 -8.8544434
-6.1298918 -17.794984 -8.1136188
-6.1220179 -18.536946 -7.3767863
-6.1143384 -19.22159 -6.6618046
-6.1127063 -19.901249 -5.9407796
-6.9386993 -0.44087 -18.594447
-6.9822487 -1.0062557 -18.485263
-7.0112755 -1.6074061 -18.365901
-7.025563 -2.2346086 -18.229641
-7.0328469 -2.8789562 -18.087986
-7.0100799 -3.5511689 -17.930664
-7.0017695 -4.2780988 -17.716499
-7.0146092 -4.9634349 -17.455432
-7.019279 -5.6255159 -17.160832
-7.0312062 -6.2965325 -16.854499
-7.0514481 -6.9485694 -16.530042
-7.0504009 -7.5571781 -16.206663
-7.0322707 -8.1242457 -15.877191
-7.0191465 -8.6947876 -15.524777
-7.0021072 -9.2637157 -15.156659
-6.9515599 -9.8248416 -14.781095
-6.9240498 -10.398384 -14.396498
-6.8954326 -10.988539 -14.004811
-6.8801443 -11.638337 -13.55293
-6.8406254 -12.337136 -13.022598
-6.7728253 -13.101886 -12.419261
-6.7339522 -13.88656 -11.746607
-6.6958081 -14.652271 -11.067531
-6.6666416 -15.4404 -10.385671
-6.6459827 -16.17699 -9.7249631
-6.6422418 -16.948303 -8.9639763
-6.6305705 -17.700786 -8.2159006
-6.6197987 -18.450699 -7.4815031
-6.6115136 -19.171597 -6.7439682
-6.6087366 -19.850176 -6.0242555
-7.3637772 -0.36551679 -18.238147
-7.4144685 -0.92258888 -18.14042
-7.4537344 -1.515704 -18.023415
-7.4876876 -2.1429685 -17.8905
-7.5042323 -2.7847258 -17.765773
-7.5005436 -3.4442924 -17.626051
-7.4951076 -4.1862594 -17.412577
-7.5019802 -4.8881167 -17.181395
-7.513486 -5.5547681 -16.90671
-7.5346166 -6.2422764 -16.606857
-7.556719 -6.9007752 -16.288174
-7.5586422 -7.5174562 -15.972497
-7.554229 -8.0938689 -15.653933
-7.541621 -8.6507559 -15.339246
-7.5046753 -9.2073747 -15.000071
-7.4635321 -9.7656158 -14.65298
-7.4325129 -10.369485 -14.2629
-7.4232299 -10.970459 -13.858289
-7.411142 -11.626165 -13.412827
-7.3800947 -12.305685 -12.922474
-7.3267055 -13.019536 -12.377211
-7.2629165 -13.797117 -11.7303
-7.2321387 -14.581339 -11.060581
-7.2049526 -15.364627 -10.382777
-7.1646008 -16.106089 -9.734034
-7.1400261 -16.852747 -9.0636893
-7.1324863 -17.608436 -8.3138225
-7.1230434 -18.360967 -7.5720186
-7.1106705 -19.101425 -6.8285729
-7.1127827 -19.806652 -6.0985474
-7.7814529 -0.30983193 -17.854579
-7.8580244 -0.84636926 -17.762662
-7.9107521 -1.4351 -17.652929
-7.9512472 -2.0457226 -17.548669
-7.9844649 -2.6828572 -17.421852
-7.9906018 -3.3559291 -17.287068
-7.9935937 -4.0696895 -17.084244
-7.9960816 -4.7938501 -16.864779
-8.0125333 -5.4801039 -16.618712
-8.0356221 -6.1790607 -16.351345
-8.0593115 -6.851826 -16.043491
-8.0655188 -7.4840101 -15.72989
-8.0592578 -8.0561203 -15.424477
-8.0360307 -8.6116396 -15.129894
-8.0048922 -9.1614852 -14.825472
-7.9838319 -9.7227625 -14.48987
-7.9727992 -10.339849 -14.112254
-7.9470469 -10.959719 -13.713695
-7.9303802 -11.61681 -13.271507
-7.9149897 -12.284237 -12.811075
-7.8721491 -12.976493 -12.276717
-7.82227 -13.724577 -11.68448
-7.7727305 -14.509762 -11.04625
-7.7390613 -15.28558 -10.381757
-7.6919351 -16.04873 -9.732679
-7.6510487 -16.780246 -9.1026405
-7.6363037 -17.519243 -8.4036827
-7.6266666 -18.272275 -7.6591596
-7.6263872 -19.03343 -6.9068602
-7.6319129 -19.776642 -6.1585051
-8.2151093 -0.27038597 -17.447557
-8.3020487 -0.79320912 -17.365904
-8.386833 -1.3584088 -17.264651
-8.4401613 -1.9610544 -17.153122
-8.4670054 -2.5849595 -17.059091
-8.4790553 -3.2555616 -16.915494
-8.4964334 -3.9565593 -16.738265
-8.5099319 -4.6835388 -16.529066
-8.5212325 -5.3905061 -16.304696
-8.5481419 -6.0927346 -16.054078
-8.5566557 -6.7836367 -15.781839
-8.5620323 -7.4301393 -15.483088
-8.5453293 -8.0009964 -15.192171
-8.5256853 -8.5534597 -14.909884
-8.5162109 -9.1275435 -14.609181
-8.5192319 -9.7130056 -14.273278
-8.5081285 -10.311656 -13.929721
-8.4804808 -10.943049 -13.554952
-8.4556343 -11.607858 -13.123393
-8.4413419 -12.26495 -12.665552
-8.4212032 -12.966409 -12.157556
-8.3847401 -13.690042 -11.596841
-8.3303516 -14.440417 -11.004178
-8.2738964 -15.21824 -10.377549
-8.2313048 -15.979977 -9.7251893
-8.1780631 -16.731004 -9.0879705
-8.155 -17.446106 -8.4676744
-8.1576035 -18.205877 -7.7297229
-8.1510708 -18.97456 -6.9719335
-8.1507913 -19.735716 -6.2196344
-8.6555411 -0.23627279 -17.026007
-8.7515515 -0.74708649 -16.95478
-8.8501795 -1.2978067 -16.865914
-8.9247784 -1.8859278 -16.749112
-8.9626524 -2.5068122 -16.638145
-8.989333 -3.1536529 -16.501274
-9.001931 -3.8375809 -16.355447
-9.0183016 -4.5705495 -16.175746
-9.0366511 -5.2884577 -15.97575
-9.0478873 -5.9968658 -15.752305
-9.0720729 -6.7064457 -15.498756
-9.0592209 -7.3584502 -15.224777
-9.0344497 -7.934773 -14.948873
-9.0245111 -8.4983594 -14.658191
-9.0285529 -9.0829447 -14.351564
-9.0354669 -9.6835195 -14.052089
-9.0306975 -10.279205 -13.717164
-9.017397 -10.917951 -13.352438
-8.9814334 -11.604548 -12.93004
-8.9670311 -12.282477 -12.494901
-8.9627382 -12.970756 -12.022056
-8.9371808 -13.674261 -11.489504
-8.8954771 -14.420174 -10.907833
-8.827184 -15.169591 -10.323963
-8.769274 -15.910928 -9.7148911
-8.7277466 -16.689346 -9.0614562
-8.6967717 -17.421776 -8.433745
-8.6786574 -18.144272 -7.7960121
-8.6748039 -18.914113 -7.0410377
-8.6698066 -19.682872 -6.2873755
-9.1148697 -0.2059994 -16.586493
-9.2119953 -0.70590108 -16.520389
-9.3012487 -1.2546965 -16.446377
-9.395429 -1.8240209 -16.343406
-9.463338 -2.4343793 -16.201611
-9.5009145 -3.0552837 -16.067156
-9.5180856 -3.7183984 -15.934039
-9.5302581 -4.44813 -15.795513
-9.5408771 -5.1656653 -15.635943
-9.5637646 -5.8937053 -15.428775
-9.5745578 -6.6196808 -15.205206
-9.569255 -7.2697731 -14.947309
-9.5495209 -7.8664507 -14.677327
-9.5397525 -8.4482568 -14.393246
-9.5309647 -9.0373504 -14.103189
-9.5409223 -9.6449334 -13.804935
-9.5522403 -10.265738 -13.487541
-9.5518603 -10.894135 -13.137286
-9.5426066 -11.587718 -12.739895
-9.5068472 -12.30522 -12.29777
-9.4968403 -12.997753 -11.835091
-9.4910288 -13.70349 -11.327776
-9.4587142 -14.414597 -10.787945
-9.4023961 -15.153331 -10.21724
-9.3345359 -15.875989 -9.6596492
-9.2920215 -16.637329 -9.0317641
-9.2465125 -17.391535 -8.4033382
-9.2194011 -18.114531 -7.7823821
-9.2110785 -18.854104 -7.0996023
-9.2125629 -19.630336 -6.3326302
-9.5740496 -0.17573635 -16.135234
-9.6712414 -0.67106611 -16.077732
-9.7710915 -1.2085828 -16.004163
-9.8670222 -1.7901269 -15.887493
-9.9446409 -2.3614408 -15.761644
-9.9919956 -2.9763727 -15.630592
-10.031847 -3.6119142 -15.496102
-10.040051 -4.3084405 -15.39035
-10.052277 -5.037026 -15.256911
-10.070334 -5.7584075 -15.09395
-10.081447 -6.5081791 -14.904133
-10.076713 -7.182851 -14.66325
-10.078432 -7.8031466 -14.390588
-10.059976 -8.3924529 -14.116604
-10.051562 -8.9930257 -13.834575
-10.050667 -9.6037427 -13.547645
-10.064324 -10.243665 -13.244925
-10.087764 -10.890875 -12.916732
-10.095022 -11.580843 -12.526537
-10.07833 -12.304375 -12.091329
-10.047496 -13.042405 -11.620246
-10.046658 -13.75788 -11.13055
-10.022207 -14.458502 -10.613623
-9.9751834 -15.171229 -10.069165
-9.9133276 -15.882963 -9.530952
-9.8559911 -16.615269 -8.9624093
-9.8173954 -17.352445 -8.35975
-9.7800411 -18.102281 -7.7287526
-9.7641602 -18.830852 -7.0939033
-9.7695103 -19.601153 -6.3636885
-10.039111 -0.1435545 -15.675511
-10.139502 -0.64486353 -15.612837
[...]
POINT_DATA 900
VECTORS normals float
-0.55095961 -0.03279325 -0.83388735
-0.54677407 -0.08975656 -0.83245533
-0.536431 -0.16764908 -0.82712488
-0.51169073 -0.24026992 -0.82488967
-0.47602727 -0.29891145 -0.82707314
-0.4475217 -0.33642966 -0.82857674
-0.41641636 -0.37125654 -0.82991927
-0.38384579 -0.39736439 -0.83352502
-0.3677886 -0.41434312 -0.83249704
-0.33728007 -0.44789243 -0.82803051
-0.29442001 -0.48797995 -0.82170094
-0.26818801 -0.5203572 -0.81074261
-0.2415578 -0.54566859 -0.80243107
-0.2276551 -0.56150115 -0.79554359
-0.20954405 -0.58063683 -0.78673513
-0.19604533 -0.59309328 -0.78090114
-0.18059335 -0.5984904 -0.78050963
-0.15969348 -0.60698655 -0.77850197
-0.14210746 -0.61705863 -0.7739794
-0.12615327 -0.62957613 -0.76662849
-0.10763122 -0.6466717 -0.75513657
-0.085208834 -0.66269747 -0.74402387
-0.069112782 -0.67888683 -0.73098296
-0.047407963 -0.69345467 -0.71893888
-0.023172486 -0.70830246 -0.70552864
0.0048721621 -0.72089893 -0.69302308
0.02756334 -0.73087175 -0.68195803
0.046101816 -0.73474677 -0.67677308
0.06630134 -0.74595046 -0.66269303
0.087998577 -0.76631956 -0.63640442
-0.57450311 -0.020067494 -0.81825636
-0.56578478 -0.066346562 -0.82187938
-0.55174421 -0.14078863 -0.82204434
-0.52762237 -0.21983822 -0.82053994
-0.50907288 -0.27101355 -0.81694336
-0.48580255 -0.30775815 -0.81809584
-0.45237464 -0.34699919 -0.82155264
-0.43245178 -0.37010131 -0.82219856
-0.40403748 -0.39527785 -0.82492978
-0.37514942 -0.42606768 -0.82324313
-0.33479358 -0.46642105 -0.818758
-0.30846471 -0.50112885 -0.80852916
-0.2822992 -0.53207412 -0.79825077
-0.2616635 -0.54708562 -0.79512863
-0.2392118 -0.56762417 -0.78776933
-0.21748105 -0.58206092 -0.78352223
-0.19840703 -0.58981465 -0.78278562
-0.1762352 -0.59719261 -0.78249737
-0.15631436 -0.60766209 -0.77866078
-0.1434683 -0.62226626 -0.76954633
-0.11977688 -0.63898939 -0.75983292
-0.10109379 -0.65506103 -0.74878241
-0.079389012 -0.67076559 -0.73740824
-0.061194843 -0.684636 -0.72631174
-0.036177691 -0.69663531 -0.71651268
-0.0087815335 -0.71330393 -0.70079982
0.017196113 -0.72330512 -0.69031441
0.035365422 -0.72856819 -0.6840597
0.053513646 -0.73702514 -0.67374344
0.070019827 -0.75744953 -0.64912821
-0.60058169 0.0025751784 -0.79955925
-0.59104808 -0.047398563 -0.80524254
-0.57850312 -0.11278033 -0.80784574
-0.56466731 -0.18158979 -0.80509377
-0.52971331 -0.24668715 -0.81151048
-0.50761891 -0.28573972 -0.8128197
-0.47780234 -0.32289052 -0.81697407
-0.45208341 -0.35666618 -0.81756335
-0.43522649 -0.37354776 -0.8191703
-0.40803421 -0.40048304 -0.82043977
-0.3745331 -0.43786469 -0.81731235
-0.340537 -0.48244599 -0.80701947
-0.31629333 -0.50801281 -0.80117508
-0.29168221 -0.52937018 -0.79667352
-0.26011658 -0.55073415 -0.79311491
-0.23332215 -0.56548424 -0.79106785
-0.20952139 -0.57715619 -0.78929812
-0.19370175 -0.5845344 -0.7879081
-0.17549679 -0.59855766 -0.78161986
-0.15829989 -0.61259226 -0.77438483
-0.13636303 -0.63070214 -0.76395022
-0.11493912 -0.64732992 -0.75349384
-0.096164777 -0.66322099 -0.74221982
-0.071683978 -0.67426948 -0.73499801
-0.048283671 -0.68748873 -0.72458811
-0.02384881 -0.70149445 -0.71227577
0.0024974908 -0.71505884 -0.69905981
0.027488222 -0.72345841 -0.6898205
0.043246715 -0.73139848 -0.68057769
0.059100123 -0.74954431 -0.65931062
-0.62802446 0.008430397 -0.77814793
-0.62619104 -0.028063586 -0.77916444
-0.6125299 -0.082260782 -0.78615538
-0.58316171 -0.15549948 -0.79733452
-0.56161299 -0.22153845 -0.79718979
-0.5276972 -0.26472329 -0.80712901
-0.502983 -0.30033189 -0.81043745
-0.48419958 -0.3297955 -0.81042316
-0.46109321 -0.34881621 -0.81591685
-0.43374123 -0.37695053 -0.81839895
-0.40171404 -0.41547627 -0.81609148
-0.36446826 -0.45968162 -0.80984918
-0.34172712 -0.4795663 -0.80823186
-0.31464132 -0.50496854 -0.80374599
-0.28475633 -0.53381884 -0.79621058
-0.25689885 -0.5507291 -0.79416651
-0.23267524 -0.56013177 -0.79505637
-0.21363581 -0.5739286 -0.79054772
-0.1946018 -0.58839219 -0.78480875
-0.17515741 -0.60299419 -0.7782788
-0.15664393 -0.62150337 -0.76759119
-0.13578436 -0.6370595 -0.7587607
-0.11114469 -0.65243877 -0.74964692
-0.087999308 -0.66404347 -0.74249741
-0.06317747 -0.67671186 -0.73353233
-0.038188564 -0.69181249 -0.72106665
-0.012125774 -0.70277062 -0.71131317
0.01270953 -0.71592968 -0.6980567
0.032589083 -0.72626021 -0.68664697
0.04192754 -0.74124831 -0.66992016
-0.65062805 0.024708992 -0.75899447
-0.64829493 -0.006372879 -0.76136264
-0.63821368 -0.056325141 -0.76779605
-0.61416976 -0.12160086 -0.77974915
-0.58412235 -0.18323131 -0.7907132
-0.55594976 -0.2344661 -0.79746192
-0.52881933 -0.27804164 -0.8018996
-0.5120228 -0.30600392 -0.80261712
-0.48588434 -0.32569579 -0.81107254
-0.4642977 -0.34554634 -0.81549088
-0.43102731 -0.385932 -0.81564204
-0.39567677 -0.42943403 -0.81180435
-0.36809704 -0.45902704 -0.80857823
-0.34315716 -0.4836141 -0.8052084
-0.31261883 -0.50968625 -0.80155437
-0.28431647 -0.53009374 -0.79885216
-0.25713342 -0.54571546 -0.79754438
-0.23402198 -0.55930892 -0.79524037
-0.20900215 -0.58013767 -0.78724735
-0.18939299 -0.59326341 -0.78241218
-0.17027216 -0.61006205 -0.77384216
-0.15129672 -0.62833811 -0.76308618
-0.12559361 -0.64149488 -0.75677643
-0.10253702 -0.65364091 -0.74982646
-0.080950913 -0.66562954 -0.74187887
-0.055112121 -0.6808931 -0.73030626
-0.030694386 -0.69567703 -0.71769863
-0.0021199421 -0.7061596 -0.70804952
0.015743706 -0.71972865 -0.69407694
0.031051542 -0.7369937 -0.67518596
-0.66421585 0.032774736 -0.74682202
-0.66388698 0.012446071 -0.74772935
-0.65937681 -0.028991256 -0.75125344
-0.6444642 -0.084138313 -0.75999121
-0.62324016 -0.14198989 -0.76903223
-0.5897384 -0.2013225 -0.78209837
-0.56227906 -0.24854608 -0.78871231
-0.53531465 -0.28033405 -0.7967754
-0.51324461 -0.29432035 -0.80619818
-0.48706164 -0.32166862 -0.81197306
-0.45890678 -0.36160271 -0.81157134
-0.42735992 -0.39873913 -0.8114004
-0.40030953 -0.43945492 -0.8041341
-0.37463219 -0.46665156 -0.80117854
-0.34884652 -0.48546248 -0.80164349
-0.31575199 -0.50847035 -0.80109836
-0.27565961 -0.52973992 -0.80211433
-0.25387704 -0.54582471 -0.79851226
-0.22538004 -0.56766347 -0.79180933
-0.2037039 -0.58269952 -0.78674391
-0.18712429 -0.60092168 -0.77709564
-0.16382203 -0.61743875 -0.769371
-0.13972926 -0.6295938 -0.76425609
-0.11844965 -0.64375295 -0.75601046
-0.095753205 -0.65838177 -0.74656867
-0.073702664 -0.67074532 -0.73801669
-0.045429483 -0.68336754 -0.72865971
-0.022894932 -0.69650236 -0.71718915
0.0018422719 -0.71269977 -0.70146678
0.016428126 -0.73314298 -0.67987609
-0.6744102 0.041975442 -0.73716276
-0.67038219 0.013730643 -0.74188894
-0.6712054 -0.0089314954 -0.7412176
-0.66411962 -0.056121428 -0.74551695
-0.64731698 -0.11008239 -0.7542298
-0.62551553 -0.1727224 -0.760853
-0.59681305 -0.21942038 -0.77179588
-0.5689267 -0.24888288 -0.78382378
-0.54651154 -0.26459819 -0.79455203
-0.52013909 -0.29070159 -0.80308649
-0.48980623 -0.33346198 -0.80553893
-0.46277967 -0.37096598 -0.80512062
-0.43661237 -0.41320374 -0.79914473
-0.4138209 -0.4369897 -0.79861898
-0.38256893 -0.45864726 -0.80204969
-0.35821407 -0.47577305 -0.80331979
-0.31424884 -0.50613415 -0.80316617
-0.28091431 -0.52722697 -0.80194693
-0.24666504 -0.55432383 -0.79490971
-0.22869706 -0.56854375 -0.79022507
-0.20511044 -0.58751698 -0.78278574
-0.17587024 -0.6057952 -0.77593933
-0.15217183 -0.61918927 -0.77035601
-0.13071061 -0.6326582 -0.7633206
-0.10968599 -0.649747 -0.75219533
-0.087813941 -0.66177881 -0.74453846
-0.065681856 -0.66930944 -0.74007484
-0.038643284 -0.68534151 -0.72719578
-0.01337684 -0.70414651 -0.70992869
0.0010843489 -0.72571524 -0.68799435
-0.68585917 0.053562867 -0.72576044
-0.68302185 0.029640099 -0.72979628
-0.67638652 -0.0013688356 -0.73654559
-0.67403703 -0.04206634 -0.73749882
-0.66526709 -0.084355708 -0.74182465
-0.65066949 -0.13300928 -0.74762139
-0.63165524 -0.17345669 -0.75559542
-0.59920708 -0.21033494 -0.77247012
-0.57297664 -0.23808746 -0.78422709
-0.55209735 -0.25603347 -0.79349567
-0.52189509 -0.29782872 -0.79932695
-0.49070424 -0.34070755 -0.80195244
-0.46833812 -0.38554083 -0.79499539
-0.44590518 -0.41022076 -0.79554227
-0.42079281 -0.42897401 -0.7993214
-0.38527667 -0.44943945 -0.80595662
-0.35689147 -0.47041118 -0.8070575
-0.31450588 -0.5036217 -0.80464355
-0.27636892 -0.53227987 -0.80018645
-0.24824998 -0.55447855 -0.79430818
-0.22802777 -0.56631712 -0.79201531
-0.19512272 -0.58925097 -0.78403471
-0.17038813 -0.60705959 -0.77617429
-0.14885519 -0.62098974 -0.76955434
-0.12491691 -0.63852277 -0.75939742
-0.10212952 -0.65076071 -0.75238292
-0.079222533 -0.65912783 -0.74784643
-0.056431626 -0.67576141 -0.73495714
-0.037486063 -0.69413019 -0.71887279
-0.018155968 -0.71536678 -0.69851323
-0.69485219 0.055317774 -0.71702188
-0.69441474 0.037555112 -0.71859431
-0.69223677 0.010053091 -0.72160043
-0.68755203 -0.024312379 -0.72572799
-0.6812501 -0.068179081 -0.72886893
-0.67010936 -0.10660784 -0.73456668
-0.65201332 -0.14119698 -0.74494432
-0.62767544 -0.17499378 -0.75855173
-0.60054202 -0.20200264 -0.7736564
-0.58084804 -0.22472618 -0.78237695
-0.55093866 -0.26592361 -0.79104439
-0.5179046 -0.311537 -0.79669286
-0.4861518 -0.36028355 -0.79614835
-0.46938907 -0.38908487 -0.79264548
-0.44297619 -0.40691436 -0.7988697
-0.41717085 -0.4202445 -0.80583066
-0.38921958 -0.43857088 -0.81003932
-0.36006467 -0.46597015 -0.80822352
-0.31448856 -0.50513278 -0.80370257
-0.28138643 -0.52881302 -0.8007362
-0.2454427 -0.55664998 -0.79366156
-0.22008899 -0.57316135 -0.7893332
-0.18644028 -0.59463599 -0.78207932
-0.16328168 -0.61032218 -0.77514252
-0.14003576 -0.62611989 -0.76704881
-0.11584859 -0.63915351 -0.76030382
-0.09524202 -0.6516727 -0.75249694
-0.074201894 -0.66653438 -0.7417722
-0.059012575 -0.6830931 -0.72794322
-0.041346413 -0.70648299 -0.70652124
-0.70302848 0.068598792 -0.70784543
-0.70468986 0.047454823 -0.70792672
-0.70352921 0.020062888 -0.71038308
-0.70129129 -0.013767169 -0.71274188
-0.69188179 -0.045616199 -0.72056835
-0.68405108 -0.085503498 -0.72440546
-0.66628418 -0.11165634 -0.73729116
-0.6477652 -0.13846437 -0.74915143
-0.62706436 -0.16831883 -0.76056496
-0.60785747 -0.19261857 -0.77032939
-0.58029669 -0.23461189 -0.77988013
-0.5431086 -0.28410236 -0.79013853
-0.51682045 -0.32824635 -0.79066488
-0.48994039 -0.36841661 -0.79008077
-0.47141316 -0.38094562 -0.79539303
-0.44640014 -0.39507052 -0.80289862
-0.42039404 -0.41473341 -0.80700994
-0.40029566 -0.43634397 -0.80583331
-0.35899024 -0.47298653 -0.80461777
-0.31609707 -0.50094836 -0.80568814
-0.27515228 -0.53321345 -0.79998415
-0.24548742 -0.5600975 -0.7912185
-0.21306656 -0.576514 -0.78881826
-0.17959013 -0.59710315 -0.78180254
-0.15133926 -0.61173726 -0.77644958
-0.12724271 -0.62636929 -0.76907139
-0.10983073 -0.64642607 -0.75503017
-0.095939868 -0.65895961 -0.7460347
-0.078030732 -0.67338783 -0.73515987
-0.055190416 -0.69568491 -0.7162238
-0.71389658 0.077783539 -0.69591766
-0.71215058 0.055351477 -0.69984124
-0.71325829 0.029912758 -0.7002627
-0.71048093 0.0025373666 -0.70371188
-0.70183759 -0.028650499 -0.7117606
-0.68989487 -0.065605749 -0.72093062
-0.67677981 -0.090158529 -0.73064391
-0.66050347 -0.11503099 -0.74195891
-0.6412396 -0.14021961 -0.75442046
-0.62450008 -0.165554 -0.76327683
-0.60216547 -0.20254178 -0.77225227
-0.5686646 -0.25227031 -0.78293056
-0.54464754 -0.29588738 -0.78473544
-0.51194337 -0.34513168 -0.78663722
-0.49364341 -0.36075247 -0.79131147
-0.47387476 -0.36981711 -0.79917334
-0.45148754 -0.39146643 -0.80181858
-0.41968151 -0.4190322 -0.80515802
-0.39500593 -0.44459662 -0.80393045
-0.35361997 -0.4770544 -0.80459432
-0.30932777 -0.50959773 -0.80288635
-0.27483401 -0.53405879 -0.79952954
-0.2391283 -0.55870769 -0.79414317
-0.2021396 -0.58306664 -0.78687539
-0.17142609 -0.60078786 -0.78081179
-0.1474665 -0.61757408 -0.77256448
-0.12323013 -0.64160956 -0.75706771
-0.11509074 -0.65646145 -0.74552833
-0.099573806 -0.66497486 -0.74019828
-0.077485472 -0.68479149 -0.7246079
-0.7217678 0.077669746 -0.68776351
-0.72183385 0.058757197 -0.68956761
-0.7147767 0.03803215 -0.69831786
-0.71363492 0.018373822 -0.70027681
-0.70512602 -0.0079049273 -0.70903795
-0.69433221 -0.038466546 -0.71862585
-0.68744957 -0.065600265 -0.72326323
-0.66992878 -0.093388679 -0.73652833
-0.65591923 -0.116834 -0.74573439
-0.64464228 -0.1372321 -0.75206627
-0.6280187 -0.16456239 -0.76059959
-0.60052057 -0.21116835 -0.77122174
-0.56588919 -0.25930213 -0.78264413
-0.5405159 -0.31223295 -0.78125101
-0.51585379 -0.33618011 -0.78795799
-0.49701256 -0.34731126 -0.79520651
-0.46450771 -0.37321635 -0.8030829
-0.44131646 -0.39626285 -0.80511834
-0.41967306 -0.42136634 -0.80394336
-0.37865894 -0.45477465 -0.80610013
-0.34081688 -0.48071978 -0.80793091
-0.30427156 -0.50994902 -0.80459357
-0.26609118 -0.533125 -0.80310225
-0.22537186 -0.56233414 -0.79560533
-0.18839152 -0.59024895 -0.78492981
-0.15590977 -0.6113889 -0.77581941
-0.14120052 -0.637849 -0.75710704
-0.13369516 -0.64767874 -0.75009189
-0.11241475 -0.65561494 -0.74668064
-0.099322569 -0.67615666 -0.73003233
-0.72890217 0.088022987 -0.67893562
-0.72744731 0.07251816 -0.68232069
-0.72464627 0.050766128 -0.68724856
-0.71565494 0.033288525 -0.69766029
-0.70781045 0.012478715 -0.70629219
-0.69959105 -0.013524396 -0.71441546
-0.68903124 -0.047090892 -0.7232001
-0.67802548 -0.07592963 -0.73110611
-0.66937825 -0.10660349 -0.73523361
-0.65877921 -0.11717535 -0.74315536
-0.65158424 -0.13353668 -0.74673016
-0.62676571 -0.17497958 -0.75930685
-0.59287703 -0.23137351 -0.77133853
-0.56666455 -0.27639587 -0.77620655
-0.53877097 -0.30521768 -0.78521845
-0.51992686 -0.32172147 -0.7913099
-0.4907229 -0.34883573 -0.79843889
-0.46180392 -0.37217453 -0.80512313
-0.43609235 -0.40075458 -0.80574141
-0.39962346 -0.42785651 -0.81070334
-0.3605044 -0.45388454 -0.81487754
-0.32790765 -0.48178398 -0.81262585
-0.2887602 -0.51069119 -0.80982224
-0.25148158 -0.53654834 -0.80552647
-0.21317256 -0.57268822 -0.79157164
-0.18364331 -0.60147318 -0.77749929
-0.15849577 -0.63468306 -0.75634417
-0.14343927 -0.64305409 -0.75226764
-0.12762821 -0.64722823 -0.7515362
-0.10408576 -0.67307773 -0.73221071
-0.73183246 0.091448126 -0.67532103
-0.7298076 0.082122693 -0.67870224
-0.72570016 0.064749305 -0.68495752
-0.72104904 0.046614675 -0.69131422
-0.7133784 0.03222781 -0.70003758
-0.70656811 0.0077421496 -0.70760269
-0.69524824 -0.028883106 -0.71818915
-0.68830609 -0.05839266 -0.72306641
-0.67732272 -0.089094083 -0.73027131
-0.66701605 -0.10623477 -0.73743051
-0.66223816 -0.11686691 -0.74012347
-0.64776495 -0.14766577 -0.74739239
-0.62298303 -0.18985403 -0.75884623
-0.60017229 -0.23512475 -0.76453226
-0.56976839 -0.27359238 -0.77492657
-0.53760799 -0.29370149 -0.79039046
-0.50554794 -0.32731174 -0.7983034
-0.47606707 -0.35166829 -0.80603322
-0.4464364 -0.37971534 -0.81025354
-0.41372127 -0.40915151 -0.81328331
-0.38253205 -0.43366878 -0.8158435
-0.35309877 -0.45322446 -0.81847959
-0.32059654 -0.48146321 -0.8157273
-0.2780899 -0.51448229 -0.81115596
-0.24196617 -0.55728208 -0.79428525
-0.21004738 -0.5883053 -0.78088218
-0.17927523 -0.61685426 -0.76638842
-0.15696578 -0.6323866 -0.7585835
-0.13639779 -0.63947291 -0.7566175
-0.11592979 -0.66030311 -0.74199736
-0.7314229 0.097819637 -0.67487174
-0.72852374 0.087360881 -0.67942714
-0.72732207 0.076730754 -0.6819934
-0.72480868 0.064490674 -0.68592517
-0.72135665 0.046550227 -0.69099758
-0.71526528 0.028874673 -0.69825628
-0.70605894 -0.0020961098 -0.70814997
-0.69935531 -0.033837746 -0.7139728
-0.68743929 -0.069377338 -0.72292048
-0.67564065 -0.094990134 -0.73108589
-0.66957156 -0.10535789 -0.73523713
-0.66089317 -0.12625949 -0.73978291
-0.64278407 -0.16081428 -0.74897758
-0.62665479 -0.1943891 -0.75466327
-0.59119084 -0.23810233 -0.77058463
-0.55830915 -0.27381333 -0.78314568
-0.52768473 -0.29806232 -0.79542924
-0.49978163 -0.32185304 -0.80413242
-0.46819336 -0.35661789 -0.80846685
-0.43430293 -0.38609877 -0.81382351
-0.4032522 -0.41146825 -0.81736255
-0.3802977 -0.43409932 -0.8166587
-0.34807868 -0.4617664 -0.8158511
-0.31122562 -0.4915766 -0.81332101
-0.27289203 -0.54143584 -0.79522146
-0.23641677 -0.57170391 -0.78566007
-0.19878065 -0.60363707 -0.77208066
-0.16469153 -0.62176424 -0.76569311
-0.14420333 -0.62991777 -0.76315726
-0.12315183 -0.65184264 -0.74828791
-0.73043537 0.10522998 -0.67482651
-0.73249516 0.095436411 -0.6740495
-0.73077986 0.084604584 -0.67734988
-0.72898197 0.075313043 -0.68037727
-0.7245193 0.058201017 -0.68679286
-0.72502701 0.041827905 -0.6874491
-0.72137834 0.024188183 -0.69211865
-0.71183747 -0.0046294395 -0.70232897
-0.70341024 -0.042145707 -0.70953349
-0.68828389 -0.076169827 -0.72143153
-0.68142581 -0.094143938 -0.72580699
-0.67188337 -0.11328499 -0.73194211
-0.65722371 -0.13581858 -0.74135707
-0.64021326 -0.16219668 -0.75087896
-0.60934779 -0.20393617 -0.76622797
-0.57668489 -0.24137953 -0.78049373
-0.54612602 -0.27205679 -0.79229507
-0.52198291 -0.29513102 -0.80026966
-0.48640059 -0.33184889 -0.80826405
-0.45359167 -0.36116072 -0.81474998
-0.42611289 -0.3900138 -0.81628245
-0.40654268 -0.41251021 -0.8152045
-0.3774227 -0.43999525 -0.81483513
-0.34308 -0.47038207 -0.81304171
-0.30063125 -0.51063736 -0.80552488
-0.26567329 -0.5515123 -0.7907287
-0.22124536 -0.58786274 -0.77811817
-0.18172592 -0.60206435 -0.77749226
-0.15938445 -0.61971292 -0.76847413
-0.13283859 -0.64175096 -0.75532087
-0.7394724 0.11311867 -0.6636149
-0.73991865 0.10482621 -0.66447864
-0.74111289 0.093636596 -0.66481868
-0.73905192 0.082632814 -0.6685612
-0.73432982 0.069433395 -0.67523234
-0.73199868 0.055081538 -0.67907581
-0.73033817 0.044157672 -0.68165699
-0.72188862 0.018653493 -0.69175781
-0.71611792 -0.014771899 -0.69782298
-0.70418213 -0.053430995 -0.70800611
-0.69603349 -0.079176443 -0.71363049
-0.68237411 -0.096247757 -0.72463918
-0.66732278 -0.11102589 -0.73644657
-0.64770869 -0.13930664 -0.74904413
-0.623884 -0.16833464 -0.76317246
-0.59347829 -0.20989063 -0.77700028
-0.56885878 -0.24070974 -0.78642133
-0.5376188 -0.27243043 -0.79796472
-0.5101326 -0.30097598 -0.80571595
-0.47860778 -0.32845338 -0.81428065
-0.45451529 -0.35913985 -0.81512847
-0.42906305 -0.38872142 -0.81535302
-0.40529891 -0.41220089 -0.81597991
-0.37142412 -0.44616238 -0.81423784
-0.33446082 -0.48287326 -0.80930179
-0.28861311 -0.52958413 -0.79764849
-0.24823529 -0.56451564 -0.78721111
-0.20659894 -0.59243239 -0.77867884
-0.17872993 -0.60913534 -0.77266406
-0.15268109 -0.63260676 -0.7592741
-0.74681166 0.12775638 -0.65264895
-0.74666445 0.11428589 -0.65530981
-0.74641334 0.10783528 -0.65668766
-0.74388371 0.095484731 -0.66145271
-0.73978979 0.078786578 -0.66820935
-0.73326024 0.067955422 -0.67654377
-0.7328916 0.054424928 -0.67816504
-0.72702159 0.038036369 -0.68556024
-0.72230812 0.010579544 -0.69149045
-0.71485024 -0.029412395 -0.69865875
-0.70552856 -0.058749247 -0.70624215
-0.69319163 -0.072507931 -0.7170969
-0.67853846 -0.092934007 -0.72866236
-0.66289822 -0.11628543 -0.73962399
-0.64443436 -0.14076785 -0.75159082
-0.62479199 -0.17343022 -0.76128636
-0.60456144 -0.20123001 -0.7707217
-0.57711779 -0.23356634 -0.78254829
-0.54294919 -0.26731702 -0.79608277
-0.50013153 -0.30037878 -0.81218289
-0.47331565 -0.33415865 -0.81505232
-0.4630914 -0.36254897 -0.80876733
-0.43786984 -0.38693707 -0.81151075
-0.41413076 -0.4188309 -0.80813142
-0.36853003 -0.45812691 -0.80889143
-0.32645829 -0.4958986 -0.80467979
-0.29079519 -0.5339704 -0.79392303
-0.2424033 -0.56691424 -0.78730483
-0.20967466 -0.58555075 -0.78304972
-0.17922223 -0.61880396 -0.76482746
-0.75455936 0.14059557 -0.6409938
-0.75519877 0.12597331 -0.64327719
-0.75294687 0.11911079 -0.6472122
-0.75315158 0.10718135 -0.6490569
-0.74650835 0.093537944 -0.6587685
-0.74011287 0.082036351 -0.66746009
-0.73509755 0.066445912 -0.67469737
-0.73770351 0.050467366 -0.6732359
-0.73119343 0.020230717 -0.68187014
-0.72380212 -0.006699703 -0.68997507
-0.71567818 -0.030437882 -0.69776664
-0.70346982 -0.0491571 -0.70902312
-0.69586881 -0.070455235 -0.71470459
-0.67666375 -0.10084433 -0.72935354
-0.66165326 -0.12549791 -0.73923287
-0.64913508 -0.14996614 -0.74574379
-0.62685372 -0.17629959 -0.75892876