# vtk DataFile Version 2.0
Grain example
ASCII
DATASET UNSTRUCTURED_GRID
POINTS 900 float
3.2385985 -16.626212 -7.471667
3.3073647 -16.15134 -8.2219812
3.3960828 -15.636091 -9.0305723
3.4730102 -15.051972 -9.8989653
3.5198784 -14.411913 -10.787508
3.5684294 -13.744403 -11.694677
3.5755562 -13.082351 -12.558214
3.5247875 -12.403735 -13.325348
3.46782 -11.798745 -14.015771
3.3980968 -11.201872 -14.648958
3.3429055 -10.598221 -15.218164
3.2952935 -9.9908652 -15.754497
3.2332176 -9.3612716 -16.280527
3.1703403 -8.7342483 -16.803542
3.1164658 -8.1085462 -17.323928
3.0763728 -7.4764071 -17.837129
3.0340046 -6.8265548 -18.362867
2.986888 -6.1617716 -18.88043
2.9198506 -5.461127 -19.379732
2.8463083 -4.7458761 -19.853324
2.7765935 -3.9441751 -20.241717
2.7136691 -3.159307 -20.620772
2.6617649 -2.4715327 -20.940537
2.6145336 -1.8277223 -21.182337
2.56917 -1.1710076 -21.371582
2.5880771 -0.54583535 -21.441958
2.6717639 0.047571307 -21.443328
2.7783957 0.56813837 -21.415378
2.9049731 1.0533192 -21.38023
3.0182721 1.5290367 -21.286851
2.8403232 -16.764624 -7.4949438
2.9036842 -16.277647 -8.2592085
2.9689914 -15.747647 -9.0870107
3.013788 -15.153178 -9.9585416
3.052041 -14.511288 -10.848977
3.075418 -13.843511 -11.742383
3.08441 -13.154538 -12.62193
3.0387105 -12.485419 -13.384835
2.9790486 -11.862312 -14.091429
2.9195889 -11.260756 -14.679117
2.8536947 -10.644027 -15.242384
2.7853712 -10.024869 -15.773489
2.7175274 -9.405468 -16.302548
2.6539851 -8.7785519 -16.829101
2.5953439 -8.1510114 -17.355847
2.5422097 -7.5235816 -17.877092
2.4964227 -6.8781896 -18.409335
2.4466876 -6.2168236 -18.931882
2.3676225 -5.4961546 -19.426901
2.2527293 -4.7246618 -19.906757
2.1324932 -3.9481513 -20.352323
2.0567154 -3.1412919 -20.73775
1.9985968 -2.4137261 -21.078502
1.9573777 -1.7176574 -21.334354
1.9219824 -1.0736311 -21.508217
1.9263283 -0.46790284 -21.631717
2.0145673 0.10879556 -21.637092
2.1218068 0.64931586 -21.611651
2.2366613 1.1296672 -21.549811
2.3425754 1.6214436 -21.466899
2.4349855 -16.899183 -7.5171593
2.5008324 -16.399824 -8.303941
2.5537235 -15.850749 -9.1536157
2.5875511 -15.24141 -10.026101
2.6046161 -14.587962 -10.913353
2.6211637 -13.913744 -11.812065
2.6067937 -13.21833 -12.685754
2.5455973 -12.561693 -13.44775
2.4992811 -11.923456 -14.122139
2.4293179 -11.307565 -14.706489
2.3532217 -10.6782 -15.259599
2.2851528 -10.058141 -15.791926
2.2080016 -9.4385767 -16.321924
2.1379071 -8.8232538 -16.85186
2.0702267 -8.2040202 -17.379474
2.0101642 -7.5806191 -17.902113
1.9502622 -6.9370868 -18.430381
1.8805899 -6.2514253 -18.953735
1.7817095 -5.5063023 -19.449332
1.65616 -4.7034163 -19.92413
1.5335385 -3.9189155 -20.380608
1.4026776 -3.1416779 -20.836433
1.3349685 -2.3817701 -21.195512
1.3059705 -1.6349246 -21.451771
1.2670952 -0.99543882 -21.632258
1.2913324 -0.4025185 -21.735991
1.3341592 0.16326862 -21.811525
1.4354458 0.6960215 -21.797412
1.5485457 1.2032655 -21.718991
1.6754707 1.6773808 -21.608729
2.0036981 -17.034486 -7.5270868
2.0626403 -16.52193 -8.3397543
2.115249 -15.949496 -9.207255
2.1413168 -15.315007 -10.092753
2.1529229 -14.652568 -10.984974
2.165331 -13.96992 -11.879334
2.1519703 -13.270905 -12.757913
2.0849364 -12.622142 -13.476784
2.0289029 -11.973493 -14.131578
1.931269 -11.336219 -14.726118
1.8417226 -10.715786 -15.277052
1.7704059 -10.102629 -15.807611
1.6973203 -9.4842943 -16.337124
1.6236698 -8.8670767 -16.866576
1.5448263 -8.2508631 -17.396389
1.4612721 -7.636546 -17.921104
1.3842119 -6.990788 -18.448481
1.2790397 -6.2619316 -18.958757
1.1747763 -5.5057518 -19.438305
1.0556103 -4.6899677 -19.914578
0.93696121 -3.8861359 -20.378954
0.79982563 -3.0944352 -20.834049
0.68238572 -2.3440968 -21.238839
0.62178491 -1.5901432 -21.538982
0.61153714 -0.92094538 -21.735782
0.65063886 -0.34412594 -21.825692
0.69124726 0.21876602 -21.905448
0.75824958 0.73574641 -21.949361
0.874185 1.2275294 -21.861882
1.0153388 1.7173876 -21.702752
1.5677023 -17.17898 -7.5368909
1.6201798 -16.631968 -8.382812
1.6614584 -16.043613 -9.2564966
1.6789371 -15.388101 -10.147502
1.6936998 -14.718497 -11.042799
1.6939744 -14.022498 -11.940326
1.6801735 -13.327105 -12.810664
1.6234039 -12.694769 -13.474547
1.5441253 -12.003111 -14.124914
1.4533968 -11.359292 -14.725698
1.3657427 -10.742044 -15.282908
1.2818982 -10.134068 -15.817128
1.1908328 -9.5230168 -16.348885
1.0997732 -8.9119581 -16.880631
1.0092928 -8.2913252 -17.410836
0.91317848 -7.6753166 -17.93316
0.78757659 -6.9998912 -18.455939
0.68811494 -6.2731646 -18.95352
0.56696998 -5.5063404 -19.428938
0.43212667 -4.6848747 -19.906043
0.30094321 -3.8777947 -20.372519
0.18487735 -3.0782052 -20.809271
0.071543495 -2.2809217 -21.209954
-0.028595177 -1.5524202 -21.556329
-0.032483702 -0.8882152 -21.768238
0.013825949 -0.28022791 -21.882596
0.058787698 0.2624289 -21.97036
0.12835647 0.78015541 -21.97489
0.21843981 1.2447402 -21.929353
0.35718526 1.7345018 -21.78389
1.1223417 -17.303463 -7.5536782
1.1714332 -16.737141 -8.4233326
1.1986644 -16.118771 -9.3074922
1.2189385 -15.455045 -10.206803
1.2219819 -14.770024 -11.109022
1.2230334 -14.073012 -12.005074
1.2122 -13.392783 -12.812995
1.1326103 -12.720309 -13.461424
1.0445347 -12.023193 -14.098834
0.95444059 -11.375501 -14.707492
0.86648535 -10.759216 -15.263571
0.78042673 -10.152036 -15.808249
0.6870892 -9.5420455 -16.350006
0.58631869 -8.932112 -16.881188
0.47441159 -8.3148217 -17.418624
0.34429615 -7.6747884 -17.942226
0.20446405 -6.9978854 -18.444919
0.065393891 -6.2766567 -18.9417
-0.073963698 -5.4994018 -19.420065
-0.20433181 -4.6801546 -19.891364
-0.31919384 -3.8855289 -20.333076
-0.43229079 -3.038956 -20.772426
-0.54880786 -2.2327566 -21.164665
-0.62629885 -1.5104215 -21.495113
-0.66266247 -0.87552165 -21.754316
-0.63375907 -0.25192646 -21.909125
-0.55608173 0.30096786 -21.95818
-0.47272645 0.81098819 -21.940062
-0.39339406 1.2732033 -21.889587
-0.29490184 1.7359136 -21.829842
0.67157597 -17.415839 -7.5844169
0.7065942 -16.838697 -8.4609308
0.72839359 -16.192139 -9.3536739
0.73733613 -15.512491 -10.259169
0.74195864 -14.823889 -11.162925
0.74675748 -14.129602 -12.029139
0.72085093 -13.435163 -12.806347
0.6424647 -12.741199 -13.458421
0.54735029 -12.044385 -14.082234
0.44663283 -11.391236 -14.688505
0.35848765 -10.777103 -15.239271
0.2605728 -10.166266 -15.783339
0.15545788 -9.5520409 -16.325757
0.035460128 -8.9387725 -16.871336
-0.098688989 -8.3105369 -17.409864
-0.24224655 -7.6495974 -17.913273
-0.38051392 -6.9787098 -18.415697
-0.54647726 -6.2579338 -18.906526
-0.69879565 -5.4890912 -19.381431
-0.83722967 -4.6912497 -19.848995
-0.96564203 -3.8753201 -20.285699
-1.0945361 -2.985981 -20.703479
-1.2114675 -2.1642081 -21.091089
-1.2765298 -1.4513503 -21.401472
-1.3200745 -0.82842338 -21.639842
-1.3205139 -0.22633566 -21.806945
-1.2507885 0.30845705 -21.854777
-1.1635802 0.83962028 -21.823911
-1.0524339 1.3071844 -21.765482
-0.92091791 1.7352376 -21.691778
0.20751323 -17.516381 -7.6205385
0.24022917 -16.923083 -8.5050976
0.25426871 -16.251377 -9.4108534
0.25653661 -15.567368 -10.314549
0.25598324 -14.875496 -11.204571
0.23541026 -14.166165 -12.022023
0.20073107 -13.461604 -12.773299
0.13606399 -12.762489 -13.441454
0.044203397 -12.058385 -14.068159
-0.065305369 -11.404399 -14.674388
-0.18685602 -10.790384 -15.204462
-0.31654678 -10.178075 -15.749871
-0.4501264 -9.5646393 -16.294434
-0.58683694 -8.9420301 -16.831025
-0.72991389 -8.2839527 -17.349852
-0.87250127 -7.6217483 -17.851414
-1.0455539 -6.9339503 -18.338444
-1.2201713 -6.2048636 -18.82399
-1.3735591 -5.4387169 -19.283679
-1.5208608 -4.6472133 -19.743619
-1.6688835 -3.8337795 -20.179554
-1.8205708 -2.9203834 -20.587247
-1.9374333 -2.1013451 -20.952934
-2.0107193 -1.4015993 -21.231762
-2.0386905 -0.79830645 -21.43498
-2.034954 -0.22255564 -21.579558
-2.0016535 0.29782473 -21.635036
-1.9163934 0.81560512 -21.632366
-1.7801093 1.2967417 -21.572363
-1.6364389 1.7226835 -21.495469
-0.26671665 -17.61712 -7.6615056
-0.26222532 -16.989216 -8.5454361
-0.25524892 -16.313656 -9.4501307
-0.25573667 -15.626709 -10.351819
-0.27701928 -14.923315 -11.182413
-0.31267438 -14.197946 -12.001394
-0.34985333 -13.488908 -12.727033
-0.40250183 -12.789907 -13.405423
-0.51894614 -12.078673 -14.035405
-0.65944233 -11.412275 -14.644299
-0.81058198 -10.802801 -15.171847
-0.95803486 -10.195907 -15.697077
-1.1027597 -9.5723994 -16.229307
-1.2624971 -8.9195034 -16.749003
-1.4199731 -8.249827 -17.252167
-1.5812404 -7.5823696 -17.74394
-1.7615168 -6.8846161 -18.235673
-1.9281478 -6.1564327 -18.712356
-2.09451 -5.3906582 -19.165902
-2.25579 -4.5895111 -19.615271
-2.428852 -3.7305586 -20.024558
-2.5947441 -2.831765 -20.417531
-2.7058232 -2.0493709 -20.734013
-2.763268 -1.3729934 -20.981711
-2.7748926 -0.77287506 -21.181013
-2.7670842 -0.23741373 -21.268745
-2.7297492 0.25949019 -21.311048
-2.6485464 0.75157426 -21.326275
-2.5374113 1.229657 -21.318492
-2.3791139 1.6907053 -21.258299
-0.78292184 -17.719912 -7.6989288
-0.79886981 -17.063357 -8.572832
-0.79657541 -16.377791 -9.4810184
-0.81261656 -15.682593 -10.337012
-0.85162222 -14.964642 -11.153288
-0.89987793 -14.231099 -11.962704
-0.96461096 -13.527944 -12.670025
-1.0489009 -12.823728 -13.360143
-1.1822548 -12.109562 -13.989895
-1.330957 -11.436362 -14.586408
-1.4910284 -10.822094 -15.12653
-1.6611387 -10.20383 -15.629787
-1.8282281 -9.5603699 -16.137206
-1.9913111 -8.8909038 -16.64549
-2.1516527 -8.2236021 -17.144804
-2.3294791 -7.5400683 -17.620044
-2.4982835 -6.8522792 -18.095803
-2.6751539 -6.0977105 -18.563448
-2.8501313 -5.330108 -19.018886
-3.0208547 -4.5136227 -19.461765
-3.1858766 -3.6249081 -19.853064
-3.3433762 -2.7400839 -20.189177
-3.4384411 -1.9913396 -20.479627
-3.4633314 -1.3496023 -20.701098
-3.4842909 -0.76943968 -20.864482
-3.4587657 -0.25837065 -20.921367
-3.4139588 0.21578156 -20.935667
-3.343178 0.6922769 -20.935548
-3.2523964 1.1672844 -20.940438
-3.152745 1.6194082 -20.929296
-1.3291995 -17.793998 -7.7555712
-1.3699863 -17.139781 -8.6059889
-1.3988568 -16.445209 -9.4809782
-1.4496205 -15.740632 -10.298753
-1.5017687 -15.021749 -11.113744
[...]
POINT_DATA 900
VECTORS normals float
0.38685372 -0.82577033 -0.41042364
0.34919698 -0.82529744 -0.44378553
0.30776355 -0.82394846 -0.47580514
0.25497325 -0.81568252 -0.51927899
0.21942576 -0.78960337 -0.5730435
0.19706946 -0.77922156 -0.59495999
0.16775053 -0.76497708 -0.62182782
0.15261768 -0.74137361 -0.65350823
0.12585269 -0.71416686 -0.68856866
0.10338609 -0.69368577 -0.71281931
0.090346519 -0.67406676 -0.73312448
0.083256058 -0.65560899 -0.75049669
0.076407707 -0.63991287 -0.76463938
0.075013512 -0.62332147 -0.77835938
0.07988662 -0.61141268 -0.78726912
0.088708116 -0.60226958 -0.79334874
0.10874094 -0.58685466 -0.80235716
0.1149144 -0.56182225 -0.81923772
0.13128287 -0.5267354 -0.83983012
0.14586376 -0.4968062 -0.85551585
0.16976914 -0.46019002 -0.87143766
0.18881105 -0.42237801 -0.88653663
0.19763533 -0.37790284 -0.90450523
0.20819098 -0.30987484 -0.92770367
0.21903613 -0.2232584 -0.94983097
0.24085397 -0.1264754 -0.96228548
0.27347353 -0.039425419 -0.96107121
0.30739602 0.051812924 -0.95017004
0.33433734 0.12746386 -0.93379414
0.34144952 0.19359367 -0.91974655
0.36196179 -0.82784706 -0.42854744
0.32595923 -0.82363592 -0.46408453
0.28314088 -0.81965325 -0.49799577
0.24051623 -0.80528982 -0.54190429
0.20198076 -0.78703954 -0.58290011
0.17095383 -0.77524788 -0.60808347
0.1533527 -0.7605507 -0.63090854
0.13093589 -0.73441458 -0.66595122
0.10205363 -0.70960619 -0.69716864
0.083482425 -0.68871408 -0.7202108
0.070540101 -0.67123293 -0.7378824
0.064114762 -0.65480505 -0.75307346
0.060667688 -0.64138869 -0.76481369
0.063864151 -0.62538131 -0.77770148
0.068334254 -0.61426119 -0.78613842
0.077040981 -0.60884218 -0.78954157
0.080649396 -0.59582916 -0.79905149
0.087287902 -0.5696677 -0.81722673
0.085396172 -0.53942131 -0.83769454
0.082318944 -0.51314699 -0.85434405
0.089568973 -0.47654371 -0.87457618
0.10529245 -0.43426178 -0.89461176
0.12226919 -0.37909063 -0.91724617
0.14151909 -0.30224668 -0.94266605
0.16611544 -0.21855109 -0.96158259
0.18069399 -0.12918229 -0.97501878
0.21357878 -0.04247433 -0.97600207
0.24537909 0.053759599 -0.96793544
0.25984545 0.12008097 -0.95815495
0.27518591 0.19183078 -0.94205821
0.32852816 -0.82967944 -0.45133278
0.29555124 -0.82364126 -0.48400882
0.25771365 -0.81636029 -0.51685545
0.21755953 -0.7999304 -0.55926667
0.18967906 -0.78197127 -0.59375313
0.16414993 -0.77351272 -0.61215428
0.14121568 -0.75392349 -0.64160541
0.11114975 -0.7282811 -0.67620439
0.082310566 -0.70557876 -0.70383491
0.066621169 -0.68376536 -0.72665436
0.059065255 -0.66956212 -0.74040385
0.053506402 -0.65529295 -0.75347742
0.053868272 -0.64188887 -0.76490319
0.054159606 -0.62672855 -0.77735324
0.057183246 -0.6147409 -0.78665348
0.059063321 -0.6107512 -0.78961668
0.057357636 -0.59885975 -0.79879729
0.048899293 -0.57114392 -0.81939214
0.031079265 -0.54349402 -0.83883749
0.03651813 -0.51880376 -0.85411304
0.040817701 -0.49158321 -0.86987347
0.057416901 -0.4510778 -0.89063579
0.079566349 -0.3922292 -0.91641991
0.096926875 -0.30779579 -0.94650247
0.11671535 -0.22343417 -0.9677059
0.14051774 -0.14552103 -0.97932548
0.15415742 -0.047152272 -0.98692054
0.17812256 0.043106281 -0.98306368
0.19264038 0.13517678 -0.97191405
0.20025573 0.20958745 -0.95706361
0.30757206 -0.82631853 -0.47180198
0.277841 -0.81969649 -0.50090122
0.23487825 -0.81023282 -0.53698696
0.20176333 -0.79455698 -0.57268732
0.17243711 -0.78042325 -0.60100332
0.15210576 -0.76940179 -0.62039078
0.1227869 -0.74908016 -0.65100099
0.086126461 -0.71873818 -0.68992584
0.063185475 -0.69939411 -0.71193783
0.050777646 -0.6842933 -0.72743681
0.039938996 -0.66739361 -0.74363341
0.039450959 -0.65612961 -0.75361632
0.037220004 -0.64354292 -0.76450453
0.035715183 -0.62904211 -0.77655035
0.039901012 -0.62086418 -0.78290203
0.036603418 -0.61206093 -0.78996305
0.034805227 -0.59701516 -0.80147458
0.019649834 -0.56836819 -0.82253965
0.011134538 -0.54366327 -0.83922957
0.0010536421 -0.52089929 -0.85361749
-0.0046064066 -0.49502243 -0.86886798
0.00020247681 -0.46041069 -0.88770601
0.0011751259 -0.4039609 -0.9147755
0.035154466 -0.32595682 -0.94473082
0.063315299 -0.24419743 -0.96765634
0.080303908 -0.14362315 -0.98636893
0.083148458 -0.058684981 -0.99480772
0.092028005 0.048539258 -0.99457267
0.11077607 0.13454049 -0.98469666
0.12725511 0.21378921 -0.96855579
0.29749695 -0.81998324 -0.4890021
0.25446541 -0.81729414 -0.51698902
0.21750476 -0.80404438 -0.55335732
0.17892111 -0.78964321 -0.58689935
0.15608784 -0.77611335 -0.61097025
0.13096125 -0.76136513 -0.63495849
0.099455695 -0.73943191 -0.66584459
0.076099546 -0.71582359 -0.69412207
0.049174138 -0.69694392 -0.71543768
0.036859737 -0.68165693 -0.7307429
0.028509507 -0.66914692 -0.74258306
0.023207042 -0.65721477 -0.75334599
0.015637715 -0.64387102 -0.76497423
0.012856837 -0.63367464 -0.77349282
0.016140662 -0.62487833 -0.78055528
0.014914484 -0.61344485 -0.78959671
-0.0055253854 -0.59284172 -0.80530005
-0.015850324 -0.56836308 -0.82262517
-0.021956644 -0.54310992 -0.83937448
-0.030315984 -0.51995436 -0.8536559
-0.037561004 -0.49674035 -0.86708603
-0.048398575 -0.46255234 -0.88526997
-0.036976789 -0.41350021 -0.90975287
-0.020781279 -0.34218156 -0.93940402
-0.013429763 -0.24513472 -0.969396
0.0022568342 -0.13769861 -0.9904716
0.010506396 -0.033687057 -0.9993772
0.0088694376 0.063686852 -0.99793052
0.022207392 0.13542712 -0.9905384
0.048228153 0.20952695 -0.97661277
0.27859154 -0.81648817 -0.50570132
0.23406136 -0.81088142 -0.53636425
0.20174346 -0.7974951 -0.56859576
0.16336472 -0.78583125 -0.59647398
0.1374183 -0.77026187 -0.62274623
0.11194846 -0.75832863 -0.64218784
0.078518562 -0.73440861 -0.67415045
0.056421153 -0.70683903 -0.70512073
0.037026958 -0.69046753 -0.72241511
0.019174731 -0.67699487 -0.73573792
0.0066706861 -0.66551548 -0.74635424
-0.00038184494 -0.65676219 -0.75409766
-0.002347422 -0.64456685 -0.76454435
-0.0051527809 -0.63552463 -0.7720634
-0.017394543 -0.6244153 -0.78089881
-0.020031518 -0.61170762 -0.79083028
-0.031259597 -0.59147534 -0.80571693
-0.041004158 -0.56757964 -0.82229679
-0.048091833 -0.54334192 -0.83813288
-0.067772421 -0.51965878 -0.85168166
-0.07654411 -0.49733625 -0.86417455
-0.084465215 -0.46605623 -0.88071404
-0.084971649 -0.41367516 -0.9064506
-0.10591288 -0.33432079 -0.93648923
-0.10072966 -0.2559631 -0.96142417
-0.10136125 -0.14504541 -0.98421935
-0.086002661 -0.024402527 -0.99599601
-0.080597488 0.080973141 -0.99345226
-0.077223276 0.14166731 -0.98689763
-0.043758544 0.1965793 -0.97951098
0.26671291 -0.81128187 -0.52027487
0.21350852 -0.802542 -0.55708209
0.17792463 -0.79087859 -0.58553726
0.14091459 -0.77763028 -0.61272688
0.11517842 -0.76792325 -0.63010143
0.088229815 -0.74893216 -0.65674662
0.061582089 -0.72670987 -0.68417864
0.036381143 -0.69956269 -0.71364449
0.019210234 -0.68467656 -0.72859383
0.00080906616 -0.67480553 -0.73799515
-0.012438593 -0.66585781 -0.74597498
-0.0211513 -0.65554186 -0.75486256
-0.023154329 -0.64420358 -0.76450351
-0.035174561 -0.63241629 -0.77382968
-0.045734727 -0.62176058 -0.78187091
-0.051003864 -0.60910359 -0.79144894
-0.057363459 -0.58565309 -0.80852947
-0.072305923 -0.56231551 -0.8237555
-0.081364275 -0.5382767 -0.83883136
-0.10232987 -0.52033097 -0.84781147
-0.11413852 -0.49547521 -0.86109042
-0.14401696 -0.46051936 -0.87588871
-0.17287675 -0.40597284 -0.89738491
-0.18616413 -0.33084712 -0.9251395
-0.19989728 -0.25635116 -0.94568767
-0.2205612 -0.12117689 -0.96781657
-0.20736357 -0.017931537 -0.97809959
-0.20531675 0.089864345 -0.97456115
-0.18644697 0.13654135 -0.97293062
-0.17647391 0.17991725 -0.96772245
0.24096969 -0.80725896 -0.53876393
0.19812058 -0.79737285 -0.57003927
0.15192893 -0.78491848 -0.60068342
0.1211879 -0.7734234 -0.62219751
0.10048428 -0.76243706 -0.63921252
0.075050775 -0.74493956 -0.662897
0.04242406 -0.72052424 -0.69213078
0.022455079 -0.69891101 -0.71485605
0.0032064508 -0.67866014 -0.73444546
-0.017729264 -0.67049314 -0.74170387
-0.029737699 -0.66253063 -0.74844427
-0.039755624 -0.65542037 -0.75421723
-0.050242334 -0.64035519 -0.76643391
-0.06169366 -0.63016404 -0.77400722
-0.07768219 -0.61743776 -0.78277461
-0.087088299 -0.60504956 -0.79141055
-0.098866789 -0.58429501 -0.80549655
-0.11874225 -0.55963412 -0.82018896
-0.1351287 -0.53648882 -0.8330186
-0.15118452 -0.50761124 -0.84821817
-0.16532313 -0.48110797 -0.86093169
-0.211483 -0.43624434 -0.87462324
-0.24089689 -0.38164419 -0.89236562
-0.29033398 -0.2972115 -0.90959964
-0.31077788 -0.21029856 -0.9269259
-0.32479175 -0.10054928 -0.94042552
-0.3209592 -0.0038773398 -0.94708508
-0.32142136 0.084966999 -0.9431166
-0.29886813 0.14240378 -0.94360956
-0.29167794 0.17795293 -0.93981739
0.21250081 -0.80474742 -0.5542788
0.16385371 -0.79082486 -0.58970162
0.13479569 -0.77843688 -0.61307923
0.10264591 -0.76730728 -0.63301134
0.082779385 -0.75795738 -0.64703027
0.053336111 -0.73861144 -0.67201816
0.015725208 -0.71348491 -0.70049411
-0.0041261224 -0.69256527 -0.72134342
-0.017712999 -0.67398545 -0.73853223
-0.036946335 -0.66521555 -0.74573671
-0.049940387 -0.65785839 -0.75148406
-0.063017227 -0.65050108 -0.7568865
-0.078332709 -0.636384 -0.76738477
-0.095062871 -0.62196736 -0.77725135
-0.10804119 -0.61371252 -0.78210232
-0.12041685 -0.59844153 -0.79206535
-0.14340754 -0.57880841 -0.8027547
-0.15511404 -0.55299824 -0.81861626
-0.17198027 -0.5283243 -0.83144225
-0.19518078 -0.49458151 -0.84693187
-0.24015566 -0.45390707 -0.85807554
-0.28642212 -0.40617441 -0.86774692
-0.32186173 -0.3436634 -0.88221341
-0.36317557 -0.25597893 -0.89586734
-0.3917119 -0.16619089 -0.90495435
-0.40905306 -0.081030154 -0.90890577
-0.41587746 0.01203337 -0.90934105
-0.40998884 0.072463383 -0.90920746
-0.39948792 0.12754957 -0.90782185
-0.38496713 0.17428196 -0.90632561
0.18429505 -0.79535784 -0.57744371
0.14375493 -0.78344141 -0.60461069
0.10690717 -0.77201837 -0.62654488
0.078022641 -0.76242498 -0.64235553
0.05482465 -0.7518155 -0.65709034
0.026074662 -0.73348731 -0.67920282
-0.009592857 -0.70992083 -0.70421616
-0.028554858 -0.68797284 -0.72517445
-0.044128796 -0.67030651 -0.74077111
-0.058817069 -0.65965426 -0.74926418
-0.072688712 -0.65315462 -0.75372767
-0.085856061 -0.64354879 -0.76057458
-0.1062745 -0.62624358 -0.77235012
-0.12341494 -0.61288296 -0.78047628
-0.1367754 -0.60152109 -0.7870609
-0.14646629 -0.58622302 -0.79679997
-0.167402 -0.56712807 -0.80643805
-0.20473165 -0.53713334 -0.81827423
-0.22655288 -0.5021827 -0.83455757
-0.25487245 -0.47283596 -0.84348455
-0.29372893 -0.42636513 -0.85553264
-0.34384588 -0.37027543 -0.86294039
-0.38168756 -0.29771357 -0.87503213
-0.41764643 -0.21480905 -0.8828525
-0.44522658 -0.12825922 -0.88618444
-0.46157277 -0.053704532 -0.88547524
-0.47684078 0.020338199 -0.87875436
-0.4753665 0.078615334 -0.87626841
-0.46154272 0.11382782 -0.87978494
-0.45137159 0.16123715 -0.87764815
0.14776491 -0.78746121 -0.59838981
0.11013431 -0.77534533 -0.62186015
0.080936307 -0.7642532 -0.63981744
0.052790368 -0.754841 -0.65377997
0.029214993 -0.74402572 -0.66751196
-0.00086412792 -0.72190823 -0.69198827
-0.028485604 -0.70166256 -0.71193976
-0.051905036 -0.68176678 -0.72972593
-0.06531267 -0.6654075 -0.74361759
-0.081113783 -0.65300288 -0.7529992
-0.094381837 -0.64624518 -0.75727092
-0.10707752 -0.6346783 -0.76532206
-0.12533629 -0.61703689 -0.77688886
-0.13680853 -0.6057434 -0.78381016
-0.15027229 -0.59026242 -0.79310057
-0.17035681 -0.57537617 -0.79995051
-0.19678502 -0.55470073 -0.80844465
-0.24117939 -0.51521581 -0.82242639
-0.26888768 -0.48602969 -0.83154949
-0.31632367 -0.43678921 -0.84211313
-0.35950222 -0.392949 -0.84637417
-0.40054408 -0.33295635 -0.85364191
-0.4382924 -0.25440438 -0.86207783
-0.45970107 -0.17940674 -0.86976327
-0.4895898 -0.093847859 -0.86688777
-0.50170958 -0.032244082 -0.86443497
-0.50492536 0.017048218 -0.86299464
-0.5129489 0.068393413 -0.85569023
-0.50878528 0.096108925 -0.8555119
-0.49728617 0.14985044 -0.85454743
0.11492654 -0.77784106 -0.6178634
0.08268529 -0.76608172 -0.6374025
0.058698464 -0.75726762 -0.65046156
0.032956484 -0.74655623 -0.66450558
0.0053748138 -0.7285948 -0.68492388
-0.0233652 -0.71035646 -0.70345417
-0.049051519 -0.69065439 -0.72151955
-0.072074998 -0.67199959 -0.73703578
-0.087241057 -0.65551828 -0.75012318
-0.10083299 -0.64719909 -0.75562295
-0.11174007 -0.63658525 -0.76306839
-0.12728963 -0.62383714 -0.77111904
-0.14020231 -0.60916162 -0.78055457
-0.15123943 -0.59466811 -0.78961793
-0.1650629 -0.58012056 -0.79763047
-0.18636992 -0.55655982 -0.80963413
-0.22457407 -0.52465949 -0.82115705
-0.26471704 -0.48927164 -0.83098625
-0.31730904 -0.44535546 -0.8372416
-0.36276119 -0.40335099 -0.84006684
-0.40484046 -0.35941988 -0.84078627
-0.45328159 -0.29304211 -0.84182072
-0.48644007 -0.20942533 -0.84824353
-0.51222364 -0.13696892 -0.84785993
-0.52657871 -0.070381332 -0.84720796
-0.53537731 -0.015227273 -0.84447573
-0.53606574 0.025671463 -0.84378581
-0.53713175 0.06484327 -0.84100228
-0.53720163 0.10125468 -0.83735411
-0.53055145 0.14520541 -0.83512307
0.094231533 -0.76906158 -0.6321904
0.067255958 -0.7612716 -0.64493581
0.038506771 -0.75005343 -0.66025532
0.012347894 -0.73476972 -0.67820423
-0.014041495 -0.71604371 -0.6979142
-0.039775713 -0.70085894 -0.71219003
-0.066527758 -0.68112661 -0.72913688
-0.084668081 -0.66421605 -0.74273033
-0.10109591 -0.64670727 -0.75600881
-0.11555967 -0.63744866 -0.76177763
-0.12831885 -0.62740839 -0.76804491
-0.14026943 -0.6182536 -0.77336083
-0.15610216 -0.60288267 -0.78240949
-0.16820802 -0.58181226 -0.795739
-0.18829382 -0.56506516 -0.80327256
-0.2179949 -0.53270341 -0.81774404
-0.25802243 -0.49892346 -0.82734504
-0.3227687 -0.4456377 -0.83500144
-0.36680461 -0.40746135 -0.83631909
-0.40890514 -0.37343605 -0.83267166
-0.44985017 -0.3263214 -0.83135382
-0.48802854 -0.26067271 -0.83299333
-0.52972713 -0.1710647 -0.83073825
-0.54424418 -0.11020642 -0.83165667
-0.55374931 -0.056977301 -0.83073178
-0.5593386 -0.0077695397 -0.82890287
-0.55962408 0.026727427 -0.82831548
-0.5652601 0.066255039 -0.82224771
-0.5624196 0.10407962 -0.82027533
-0.56232112 0.13984144 -0.81500879
0.068981821 -0.76074375 -0.64537621
0.045401972 -0.75415395 -0.65512631
0.017298094 -0.73744809 -0.67518226
-0.011145048 -0.72476342 -0.68890766
-0.031839164 -0.70526587 -0.7082276
-0.053050297 -0.69113206 -0.72077884
-0.07668319 -0.67132999 -0.73718094
-0.09568786 -0.65566263 -0.74896618
-0.11198693 -0.63683393 -0.76282467
-0.12781122 -0.62829306 -0.7674061
-0.14153362 -0.62020065 -0.77156943
-0.15870701 -0.6074952 -0.77830692
-0.1790565 -0.58898985 -0.78805439
-0.1942222 -0.57149058 -0.79729308
-0.22601073 -0.54416681 -0.80796141
-0.26371214 -0.50735147 -0.82039649
-0.32465736 -0.46103175 -0.82586157
-0.37262325 -0.41369603 -0.8306669
-0.41078192 -0.38241816 -0.82765607
-0.44653026 -0.34178576 -0.8269179
-0.49558144 -0.2957488 -0.81665885
-0.52748574 -0.2392395 -0.81518296
-0.54464057 -0.16965927 -0.82132964
-0.56212516 -0.11073673 -0.8196052
-0.571116 -0.052277711 -0.819203
-0.57926508 -0.00092352818 -0.81513871
-0.58804498 0.03619246 -0.80801807
-0.59258582 0.069487358 -0.80250455
-0.59147095 0.10497041 -0.7994644
-0.59433052 0.13644014 -0.7925625
0.051369875 -0.75263107 -0.65643553
0.024825311 -0.7416896 -0.6702837
-0.00058835639 -0.72705476 -0.68657922
-0.024062083 -0.7131027 -0.70064653
-0.044701963 -0.69512724 -0.71749555
-0.065434721 -0.68026494 -0.73003967
-0.087299401 -0.66455768 -0.74211988
-0.10748878 -0.64752894 -0.75442192
-0.12565153 -0.62979947 -0.76652744
-0.14248008 -0.61607414 -0.77469483
-0.16068986 -0.60620883 -0.77890283
-0.18380472 -0.59728857 -0.78068059
-0.21035553 -0.58151653 -0.78586836
-0.2454833 -0.552914 -0.79625628
-0.27300307 -0.52542979 -0.80584915
-0.31673003 -0.48874083 -0.81290497
-0.3801834 -0.42918604 -0.81930454
-0.41786645 -0.38631111 -0.82228423
-0.44830048 -0.35587258 -0.81998865
-0.48790419 -0.312586 -0.81500889
-0.51653088 -0.27001639 -0.81258046
-0.5549257 -0.21365302 -0.80399618
-0.57924621 -0.14278937 -0.80254908
-0.59621282 -0.092611482 -0.79746685
-0.60631346 -0.032599028 -0.7945573
-0.61480889 0.012315211 -0.78857997
-0.61933848 0.044057413 -0.78388698
-0.62207179 0.086797385 -0.77813425
-0.62247419 0.10898171 -0.7750154
-0.615812 0.14295144 -0.77481641
0.03882351 -0.74260928 -0.66859868
0.015574281 -0.73118222 -0.68200441
-0.010865559 -0.71568858 -0.69833502
-0.033560842 -0.70391373 -0.70949217
-0.058972282 -0.68670734 -0.72453799
-0.081525294 -0.67112292 -0.73684981
-0.10544157 -0.65247564 -0.75043828
-0.12198234 -0.63773153 -0.7605385
-0.14343558 -0.62329889 -0.76871629
-0.16182918 -0.60716185 -0.77792404
-0.1865979 -0.59541823 -0.78144633
-0.21831788 -0.58145209 -0.78374152
-0.24575174 -0.5658348 -0.78704324
-0.2828317 -0.53296119 -0.79747013
-0.31643351 -0.50241396 -0.80464281
-0.35411616 -0.46103062 -0.81366609
-0.4100074 -0.39645881 -0.82140997
-0.4529663 -0.3571396 -0.8168677
-0.48419958 -0.3297955 -0.81042316
-0.52132569 -0.28823525 -0.80320606
-0.54976498 -0.24089242 -0.7998308
-0.58435232 -0.18009285 -0.79126414
-0.60823914 -0.11187493 -0.78583023
-0.62722926 -0.061430578 -0.77640823
-0.63760553 -0.012928324 -0.77025453
-0.64573262 0.015936929 -0.76339727
-0.64745942 0.053353888 -0.76023
-0.64846668 0.078170225 -0.75721885
-0.64687655 0.10937529 -0.7547104
-0.64819069 0.13435763 -0.74953109
0.028136411 -0.73126682 -0.68151096
0.0052869626 -0.72197946 -0.69189429
-0.0218449 -0.70746905 -0.70640664
-0.047455039 -0.69335808 -0.71902893
-0.072764349 -0.67818935 -0.73127598
-0.092991938 -0.66433989 -0.74162323
-0.11941221 -0.64504396 -0.75475759
-0.1394426 -0.63020605 -0.7638037
-0.16315694 -0.61097014 -0.77465818
-0.1857823 -0.5958598 -0.78130406
-0.20798929 -0.58002871 -0.78759581
-0.23987975 -0.56541344 -0.78915483
-0.27648172 -0.54178393 -0.79374305
-0.31647069 -0.50836543 -0.80088132
-0.35063415 -0.47112826 -0.80937869
-0.39020954 -0.4237783 -0.81740349
-0.44565221 -0.36518599 -0.81733304
-0.48744507 -0.3279096 -0.80924199
-0.51644841 -0.30210825 -0.80125629
-0.54872915 -0.25986531 -0.79458564
-0.58496286 -0.21214094 -0.78282481
-0.61689321 -0.14327104 -0.77389675
-0.63754489 -0.074821836 -0.76677129
-0.65060418 -0.029844795 -0.75883035
-0.65867965 0.00013473605 -0.75242349
-0.66493717 0.026807808 -0.74641805
-0.66776736 0.05487607 -0.74234451
-0.66920192 0.083148098 -0.73841396
-0.67021899 0.10722867 -0.73437628
-0.67038849 0.13396365 -0.72981711
0.017313177 -0.72349111 -0.69011656
-0.0053439245 -0.71116272 -0.70300713
-0.034365315 -0.69615079 -0.71707259
-0.05742502 -0.68258824 -0.72854352
-0.086528804 -0.66784683 -0.7392519
-0.11070767 -0.65385302 -0.74847849
-0.13652361 -0.63647533 -0.75911821
-0.15854878 -0.61731746 -0.77057215
-0.17953245 -0.5995046 -0.77997585
-0.20309475 -0.58284461 -0.78679393
-0.22878492 -0.563635 -0.79370842
-0.26803737 -0.54240155 -0.79621387
-0.30925181 -0.51252714 -0.80104884
-0.34253404 -0.48181414 -0.80655165
-0.38395744 -0.44511118 -0.80898252
-0.42771445 -0.39390663 -0.81357109
-0.4753619 -0.34110684 -0.81097299
-0.51199854 -0.30140088 -0.80437243
-0.54078731 -0.27864068 -0.79366772
-0.58074465 -0.23045237 -0.78078637
-0.61468054 -0.18212686 -0.76746181
-0.64082147 -0.10970691 -0.75981066
-0.66000946 -0.062025488 -0.74869243
-0.67220939 -0.021118255 -0.74005984
-0.67551516 0.011736203 -0.7372527
-0.67903279 0.037181137 -0.73316576
-0.68270959 0.059325973 -0.72827745
-0.68413003 0.084439801 -0.72445568
-0.68583598 0.11025041 -0.71935656
-0.68180858 0.14314451 -0.71738882
0.0059682134 -0.71324139 -0.70089307
-0.020187942 -0.70229107 -0.71160362
-0.047052636 -0.68602761 -0.72605246
-0.074954502 -0.67027263 -0.73832
-0.10096062 -0.65525592 -0.74862984
-0.12764679 -0.64262348 -0.75547426
-0.15172563 -0.62764327 -0.7635727
-0.1743772 -0.60917424 -0.77362739
-0.1979669 -0.5882161 -0.7840988
-0.22555499 -0.56902956 -0.79077829
-0.25215099 -0.54788541 -0.79764745
-0.30268575 -0.51264463 -0.80347795
-0.34745314 -0.48129035 -0.80475829
-0.39118926 -0.45027092 -0.80263756
-0.42678435 -0.41438639 -0.80382774
-0.46314955 -0.36994148 -0.80537929
-0.50930147 -0.3096125 -0.80296458
-0.54255776 -0.2663521 -0.79667286
-0.56897302 -0.24291989 -0.78565872