# vtk DataFile Version 2.0
Grain example
ASCII
DATASET UNSTRUCTURED_GRID
POINTS 900 float
-21.11477 -7.1437934 -3.1478413
-20.916373 -6.4833469 -3.3030744
-20.701967 -5.7883277 -3.4416764
-20.473184 -5.0861099 -3.5612847
-20.234941 -4.3685751 -3.6769048
-19.99447 -3.6626424 -3.7604229
-19.748165 -3.0010439 -3.8187699
-19.50426 -2.3637928 -3.8827196
-19.260268 -1.7386102 -3.937876
-18.995533 -1.1097173 -3.9918204
-18.65591 -0.48784685 -4.1009292
-18.315388 0.13564317 -4.2024264
-17.946007 0.80715284 -4.2922545
-17.558222 1.4755266 -4.3796697
-17.16537 2.1410097 -4.4524769
-16.742718 2.8358628 -4.5286622
-16.226364 3.5789194 -4.605636
-15.666806 4.3384509 -4.6893439
-15.110171 5.0930634 -4.7878087
-14.543179 5.8646129 -4.8746735
-13.941678 6.6710867 -4.9427608
-13.310597 7.4910609 -4.9570464
-12.656681 8.2971193 -4.9775959
-12.093826 8.9997784 -4.9904542
-11.619818 9.6013303 -5.000482
-11.169607 10.151583 -5.0155481
-10.724843 10.70663 -5.0412285
-10.296188 11.208251 -5.0822338
-9.860362 11.673882 -5.1350767
-9.4378537 12.12438 -5.1987073
-21.583116 -6.9414691 -2.1332147
-21.387846 -6.2464145 -2.2737904
-21.153677 -5.528566 -2.3961534
-20.920374 -4.8174783 -2.5097798
-20.670083 -4.0840372 -2.6142646
-20.352724 -3.3764963 -2.7701739
-20.035662 -2.7324101 -2.929706
-19.71296 -2.1205242 -3.072831
-19.414794 -1.5340713 -3.1984933
-19.087884 -0.92987071 -3.3264153
-18.743837 -0.30577147 -3.445076
-18.370201 0.33970053 -3.5424914
-17.988914 0.98977062 -3.6346262
-17.591991 1.6559245 -3.7167678
-17.194911 2.3221797 -3.8069711
-16.74188 3.0287617 -3.8855252
-16.21745 3.7717235 -3.9810509
-15.658351 4.5260166 -4.0802701
-15.099336 5.2813465 -4.1715295
-14.484995 6.085117 -4.2594936
-13.853212 6.8978623 -4.3335528
-13.204662 7.6800008 -4.3988241
-12.549345 8.4739745 -4.4430126
-12.004596 9.1589983 -4.4849952
-11.543694 9.7373093 -4.5173368
-11.106165 10.280021 -4.531895
-10.678759 10.814025 -4.5626871
-10.242015 11.296926 -4.6209895
-9.7977127 11.773053 -4.6892228
-9.3791452 12.220533 -4.77142
-21.932864 -6.8112289 -1.2551928
-21.668473 -6.0942674 -1.4270541
-21.391345 -5.3639844 -1.5958266
-21.09513 -4.6504545 -1.7534766
-20.786024 -3.9142432 -1.9087197
-20.466183 -3.1940295 -2.0662675
-20.137919 -2.5494807 -2.2373697
-19.811758 -1.9414768 -2.4053392
-19.487064 -1.354445 -2.5474124
-19.155154 -0.76274753 -2.6760661
-18.77537 -0.12752557 -2.7987448
-18.38738 0.51668556 -2.916613
-18.002279 1.1620674 -3.0096331
-17.612168 1.8173983 -3.1049058
-17.195733 2.4842719 -3.1772402
-16.735502 3.1963164 -3.2624362
-16.196462 3.9454469 -3.3629865
-15.628239 4.7000901 -3.4651078
-15.050694 5.4525993 -3.5700253
-14.417596 6.2653301 -3.676519
-13.750287 7.0711994 -3.7853343
-13.095397 7.8487844 -3.8723106
-12.456012 8.6106981 -3.941329
-11.93029 9.276089 -4.0040018
-11.493569 9.8506155 -4.0444721
-11.062276 10.385503 -4.0645414
-10.64144 10.8846 -4.0949042
-10.202212 11.36382 -4.1617463
-9.7746645 11.82474 -4.247684
-9.3491236 12.275261 -4.340291
-21.938765 -6.818828 -0.70045072
-21.717334 -6.0346077 -0.85129948
-21.436931 -5.294696 -1.0137512
-21.139616 -4.5418437 -1.1664
-20.835977 -3.8085053 -1.3077164
-20.524201 -3.0612113 -1.4525423
-20.200249 -2.4013285 -1.6113132
-19.875064 -1.7894782 -1.7672264
-19.529413 -1.1988648 -1.9081459
-19.162522 -0.58701304 -2.0531972
-18.784902 0.040071409 -2.1746433
-18.401008 0.67623709 -2.2946788
-18.004691 1.318625 -2.4030419
-17.601601 1.964964 -2.5058033
-17.184979 2.6266987 -2.589857
-16.711769 3.3415729 -2.6713317
-16.150161 4.1029567 -2.7678196
-15.572511 4.8564844 -2.8688375
-14.977829 5.6172674 -2.9717124
-14.321647 6.4208556 -3.092875
-13.653345 7.2157774 -3.213271
-13.000526 7.9954084 -3.3317536
-12.364448 8.7459382 -3.4309823
-11.873444 9.3845124 -3.5009063
-11.450414 9.9456112 -3.5641693
-11.02124 10.481098 -3.6036241
-10.60278 10.956228 -3.6556344
-10.174486 11.41374 -3.7175611
-9.7415213 11.868109 -3.8167722
-9.3166917 12.308521 -3.9124745
-21.919582 -6.8406277 -0.1486581
-21.702384 -6.030579 -0.28390683
-21.451911 -5.2302682 -0.42498913
-21.171674 -4.4575509 -0.57359439
-20.871532 -3.6958794 -0.72372752
-20.558463 -2.9482911 -0.86497869
-20.215144 -2.2569637 -1.0119685
-19.86773 -1.6495956 -1.1585797
-19.51915 -1.0465824 -1.3012608
-19.149223 -0.41806145 -1.4323854
-18.769703 0.215155 -1.5628502
-18.374943 0.83997157 -1.6855456
-17.978558 1.4773924 -1.7855902
-17.571213 2.1222216 -1.8855881
-17.158115 2.7729034 -1.9837941
-16.662898 3.486482 -2.0721234
-16.099855 4.24512 -2.1768831
-15.504747 5.0104689 -2.2842049
-14.883972 5.7846073 -2.3842046
-14.221297 6.572418 -2.5063484
-13.561633 7.3504398 -2.6348858
-12.911032 8.1197978 -2.7599807
-12.284419 8.8695941 -2.8801902
-11.815511 9.4860691 -2.9856808
-11.392112 10.044774 -3.056905
-10.988654 10.551306 -3.1463319
-10.562744 11.015393 -3.2239617
-10.141451 11.452839 -3.3023374
-9.7073979 11.900339 -3.38942
-9.2806155 12.349018 -3.4862971
-21.824632 -6.8675211 0.39159044
-21.651356 -6.0358276 0.28474282
-21.428192 -5.1967108 0.1616585
-21.160936 -4.3960854 0.019265355
-20.861331 -3.6071951 -0.12053052
-20.545438 -2.8355178 -0.25629455
-20.196496 -2.12762 -0.40217514
-19.843719 -1.5129797 -0.5469666
-19.474241 -0.88526837 -0.68189697
-19.089223 -0.2554028 -0.81386893
-18.699039 0.37476278 -0.94348873
-18.311506 1.0027033 -1.0601131
-17.918666 1.6357814 -1.1827614
-17.517047 2.2758258 -1.2806311
-17.096473 2.9248081 -1.3770772
-16.607069 3.6264635 -1.4707723
-16.030497 4.3956702 -1.5885193
-15.41896 5.183022 -1.7065117
-14.779052 5.939592 -1.8113583
-14.123521 6.7104781 -1.9301058
-13.468839 7.4891715 -2.0571176
-12.831369 8.2465347 -2.181263
-12.212072 8.980791 -2.3021172
-11.754155 9.5727359 -2.4305029
-11.33602 10.111103 -2.5507263
-10.94826 10.593805 -2.6696163
-10.523815 11.065775 -2.7913459
-10.103025 11.500277 -2.881372
-9.6730668 11.939732 -2.9706222
-9.2477869 12.380954 -3.0625189
-21.664821 -6.8882292 0.97500711
-21.525269 -6.0476091 0.87018696
-21.3288 -5.1943912 0.74656458
-21.091713 -4.3343048 0.62167586
-20.792027 -3.5422121 0.49364578
-20.485758 -2.7610258 0.35627162
-20.151462 -2.0231211 0.22098845
-19.787837 -1.3587457 0.085425722
-19.402293 -0.72555616 -0.050939561
-19.011751 -0.097973202 -0.1804975
-18.622373 0.5339643 -0.31398462
-18.227418 1.165754 -0.43721273
-17.83332 1.7978694 -0.5521879
-17.426828 2.4271601 -0.67088089
-17.022529 3.0704964 -0.7778228
-16.535781 3.769239 -0.87848906
-15.956895 4.5365421 -1.0008397
-15.30693 5.3289444 -1.1352956
-14.668545 6.0844712 -1.2556024
-14.019933 6.8544527 -1.3560954
-13.368513 7.6302089 -1.4738749
-12.745914 8.3729943 -1.5923441
-12.142262 9.0855557 -1.7348179
-11.702126 9.632775 -1.9026049
-11.284076 10.151293 -2.0774979
-10.888204 10.631611 -2.2067903
-10.470364 11.09815 -2.3260694
-10.060074 11.540921 -2.4413621
-9.6331574 11.978977 -2.5415658
-9.2255502 12.387723 -2.6457075
-21.461774 -6.9004114 1.5682272
-21.312154 -6.0532192 1.4717957
-21.141976 -5.1858502 1.383528
-20.923786 -4.3247883 1.2605301
-20.674805 -3.4857414 1.1173006
-20.386672 -2.6920274 0.97279173
-20.047389 -1.913916 0.85323195
-19.670238 -1.2272449 0.71990235
-19.303432 -0.58736504 0.58899479
-18.931817 0.055396292 0.46037817
-18.535613 0.70080593 0.32783005
-18.138569 1.3302396 0.20009959
-17.740361 1.9553187 0.076298654
-17.339035 2.58431 -0.044747174
-16.925358 3.2244906 -0.16243966
-16.434012 3.9259467 -0.27274427
-15.863606 4.6743826 -0.39915051
-15.197294 5.4591875 -0.53824918
-14.55508 6.2207535 -0.66417421
-13.91066 6.9844227 -0.78693482
-13.277266 7.7419062 -0.90980246
-12.66937 8.4718785 -1.0507878
-12.079637 9.1475107 -1.2143935
-11.645949 9.6870353 -1.3876329
-11.232708 10.202671 -1.5648165
-10.830075 10.662219 -1.7388674
-10.40949 11.134373 -1.8673974
-10.003933 11.576777 -1.99318
-9.6076716 11.994307 -2.1223554
-9.2186457 12.3995 -2.2404094
-21.1669 -6.9257956 2.2214368
-21.03724 -6.0624013 2.1101925
-20.870896 -5.19378 2.0190466
-20.692324 -4.3191168 1.9036218
-20.475932 -3.4612938 1.7653998
-20.211224 -2.6285797 1.6296461
-19.898178 -1.8053248 1.483289
-19.547354 -1.1069454 1.341461
-19.177939 -0.45082669 1.2046301
-18.796254 0.19850689 1.0844018
-18.413328 0.84599989 0.95990334
-18.035869 1.4826394 0.83786301
-17.647865 2.111769 0.70900096
-17.250059 2.7380786 0.59324899
-16.819831 3.3933922 0.47731946
-16.316372 4.0817531 0.35607398
-15.731869 4.8188403 0.21798355
-15.091394 5.5867833 0.068159736
-14.444957 6.3530632 -0.067421384
-13.824637 7.0925556 -0.2109672
-13.201046 7.836654 -0.38387353
-12.59886 8.5346923 -0.54691743
-12.020078 9.1917284 -0.71181792
-11.587023 9.7316398 -0.88488309
-11.172739 10.246097 -1.0643175
-10.76454 10.696984 -1.2415399
-10.352971 11.153254 -1.4101823
-9.9750208 11.584355 -1.5605168
-9.5948743 12.017368 -1.6996653
-9.2112189 12.429873 -1.8365332
-20.834246 -6.9652873 2.861683
-20.717077 -6.0831996 2.759119
-20.571509 -5.2040855 2.6658109
-20.407504 -4.3345792 2.5733415
-20.216884 -3.4599689 2.4461151
-19.980281 -2.5712158 2.3194424
-19.697608 -1.7268927 2.1732353
-19.363344 -0.99074332 2.0140642
-19.011418 -0.30667884 1.8748574
-18.646601 0.33845037 1.7242088
-18.268659 0.98410374 1.583395
-17.89107 1.6253919 1.460999
-17.516603 2.2626732 1.3398589
-17.130699 2.9016046 1.2250066
-16.70864 3.5488424 1.0901843
-16.191279 4.2481372 0.97382166
-15.597331 4.9787791 0.83118674
-14.966328 5.7228908 0.66394614
-14.366015 6.4535436 0.49328531
-13.748817 7.1804556 0.31555027
-13.129914 7.9028811 0.13357807
-12.527902 8.5914186 -0.046780983
-11.959568 9.2390128 -0.2137514
-11.530662 9.7767227 -0.38535958
-11.115514 10.275929 -0.56603699
-10.712224 10.735469 -0.75630561
-10.33312 11.16015 -0.96260729
-9.9553037 11.585913 -1.1325518
-9.5709997 12.020972 -1.2911616
-9.1992395 12.438557 -1.4326265
-20.481745 -7.0084993 3.4919188
-20.368301 -6.1187239 3.410023
-20.247333 -5.2200396 3.3051389
-20.098139 -4.3493392 3.2232637
-19.918045 -3.4580171 3.136254
-19.696551 -2.5478922 3.0229081
-19.434133 -1.6432503 2.8990273
-19.126749 -0.88382448 2.7547667
[...]
POINT_DATA 900
VECTORS normals float
-0.87584538 0.14510842 -0.46025908
-0.87009294 0.16320016 -0.46508493
-0.86807821 0.17427437 -0.46483186
-0.87139144 0.19620237 -0.44964608
-0.87483078 0.23308116 -0.42466961
-0.87472279 0.26818785 -0.40365247
-0.87204946 0.30165917 -0.38539782
-0.86960837 0.33810269 -0.35981642
-0.86665661 0.36925018 -0.33550056
-0.86304283 0.39805242 -0.31098447
-0.85857816 0.42211005 -0.29097533
-0.85362687 0.44424605 -0.27196805
-0.85291271 0.45854752 -0.24954776
-0.84849533 0.476045 -0.23116409
-0.84143584 0.49458428 -0.21765137
-0.83409435 0.5153079 -0.19683594
-0.82567165 0.5360064 -0.17596437
-0.81895594 0.55143091 -0.15885567
-0.8131089 0.56407725 -0.1437733
-0.80496521 0.58172801 -0.11671994
-0.79586454 0.59779162 -0.096149977
-0.78884706 0.60995252 -0.075354038
-0.78133034 0.62100217 -0.062283225
-0.77362405 0.63161937 -0.050624045
-0.76747811 0.63938774 -0.046482909
-0.76099037 0.64740206 -0.04200277
-0.75173379 0.65812349 -0.042068821
-0.74319663 0.66770338 -0.042789879
-0.7354165 0.67623786 -0.043184744
-0.72641331 0.68547639 -0.049455255
-0.9240511 0.18643891 -0.33372158
-0.91660037 0.21155024 -0.33924954
-0.9110913 0.23062982 -0.34164679
-0.91009151 0.2670199 -0.31691295
-0.9060231 0.30623685 -0.29213204
-0.89611562 0.34002497 -0.28523644
-0.88834997 0.36902725 -0.27322742
-0.88259138 0.3970631 -0.25174063
-0.87771423 0.41162231 -0.24532591
-0.87041368 0.43861352 -0.2236028
-0.86259887 0.46106811 -0.20818112
-0.85772142 0.47537578 -0.19578515
-0.85321966 0.48420612 -0.19380569
-0.8454931 0.50063104 -0.18576864
-0.83744383 0.51876658 -0.17195656
-0.82564708 0.54442086 -0.14802981
-0.81915569 0.55712426 -0.13636901
-0.8146548 0.56754295 -0.11930033
-0.80663207 0.58201134 -0.10299277
-0.79864779 0.59604046 -0.083051051
-0.79138161 0.60720809 -0.070805986
-0.78361348 0.61822834 -0.061185272
-0.77724253 0.62722558 -0.049820983
-0.76970911 0.63697272 -0.042586963
-0.76370062 0.64442673 -0.038412867
-0.75642169 0.65307568 -0.036309558
-0.74898986 0.66179849 -0.032201811
-0.7424201 0.66917578 -0.031877502
-0.73510013 0.6771239 -0.033630559
-0.72488125 0.68800094 -0.034668146
-0.95775808 0.22033813 -0.18479874
-0.95179114 0.24497131 -0.18461498
-0.94061182 0.27588535 -0.19782991
-0.92682793 0.30802785 -0.21472968
-0.91691357 0.33478096 -0.21723538
-0.90361599 0.37522866 -0.20659526
-0.89116291 0.40650753 -0.20144551
-0.88215374 0.43129038 -0.18919137
-0.8750944 0.44881262 -0.18104424
-0.86857769 0.46581914 -0.16907195
-0.86224091 0.47821749 -0.16687912
-0.85754463 0.48719707 -0.16509458
-0.85159415 0.50189234 -0.15129931
-0.84340882 0.51728493 -0.14518218
-0.83139087 0.5397509 -0.13212945
-0.8196196 0.5611619 -0.11541676
-0.81376826 0.57233442 -0.10106694
-0.80642407 0.58490632 -0.086975948
-0.7997428 0.59569771 -0.074536531
-0.79386873 0.60506231 -0.06059745
-0.78837666 0.61286113 -0.053511574
-0.77768502 0.62691765 -0.046693327
-0.77357541 0.63250195 -0.039017616
-0.76883164 0.63857738 -0.033419142
-0.76133603 0.64753742 -0.032599586
-0.75349769 0.65668594 -0.031698667
-0.74638478 0.66503189 -0.025344576
-0.7404148 0.67165884 -0.025696941
-0.73199411 0.68092402 -0.022958888
-0.72529962 0.68787616 -0.027692068
-0.97258943 0.2265901 -0.052217996
-0.96054355 0.26120759 -0.095533697
-0.9495687 0.29425081 -0.10833169
-0.93617681 0.32361386 -0.1372846
-0.92234208 0.35519804 -0.15205077
-0.90821919 0.39190479 -0.14679422
-0.89509742 0.42087746 -0.14718282
-0.88158928 0.44958613 -0.14377988
-0.87207284 0.47100739 -0.1328194
-0.86424355 0.48622795 -0.12909478
-0.85923223 0.49624498 -0.12434184
-0.85592331 0.50301752 -0.11986934
-0.8504497 0.51356798 -0.113944
-0.83801029 0.53487772 -0.10791007
-0.82698574 0.55355844 -0.098324169
-0.81432983 0.5739595 -0.08624055
-0.80921128 0.58264573 -0.0755054
-0.80121085 0.59520804 -0.061551278
-0.79488434 0.60459666 -0.05120318
-0.79001353 0.61173548 -0.040722567
-0.78435878 0.61923564 -0.036448976
-0.77581724 0.63000624 -0.034637226
-0.7703468 0.63704907 -0.02709777
-0.7693437 0.63823284 -0.027732973
-0.76030342 0.6489496 -0.028339513
-0.75191989 0.65880685 -0.024290193
-0.74378186 0.66807363 -0.021590816
-0.73774393 0.67480208 -0.019391854
-0.73131815 0.68182217 -0.017096413
-0.72625926 0.68720605 -0.017185042
-0.96620908 0.24393546 0.083279733
-0.96359171 0.26610945 0.026015075
-0.95211701 0.30503501 -0.020660387
-0.94264351 0.32948121 -0.053528859
-0.9248381 0.37371646 -0.070784894
-0.90925496 0.40844651 -0.080167718
-0.89378736 0.44036364 -0.084994276
-0.87866589 0.47059209 -0.080556408
-0.86919198 0.48625705 -0.089774015
-0.862743 0.49887793 -0.082433841
-0.85854822 0.50688863 -0.077193733
-0.85342339 0.51649553 -0.070006297
-0.84623316 0.52865624 -0.066423099
-0.83565078 0.54545733 -0.064529617
-0.82192025 0.56593123 -0.064567318
-0.81195838 0.58078355 -0.058429894
-0.80276306 0.5939176 -0.053229253
-0.79677296 0.60262388 -0.044691342
-0.79112069 0.61082871 -0.031880298
-0.78721928 0.61611873 -0.026144226
-0.78227003 0.6224301 -0.025186766
-0.77422045 0.63252232 -0.022320514
-0.76688379 0.64155895 -0.017069221
-0.76468992 0.6442142 -0.015407633
-0.75761392 0.65250083 -0.016242283
-0.74785887 0.6637016 -0.014397729
-0.74123849 0.67108615 -0.014452657
-0.73566472 0.67724999 -0.01139594
-0.7289586 0.68444911 -0.012197176
-0.72431389 0.68939252 -0.010360583
-0.95581294 0.2497274 0.15510594
-0.95906962 0.25957783 0.11315832
-0.95405171 0.28623136 0.088639426
-0.94457312 0.32482003 0.047681902
-0.92907596 0.36978496 0.0087718598
-0.90823293 0.41817569 -0.015557342
-0.891704 0.45139309 -0.033290425
-0.87625612 0.48033082 -0.038177441
-0.86679264 0.49749086 -0.034254277
-0.85920382 0.5105722 -0.032936622
-0.85471495 0.51807178 -0.032618626
-0.85124116 0.52390431 -0.03021205
-0.84284358 0.53739993 -0.028566113
-0.83150334 0.55463762 -0.031293757
-0.82022402 0.57103186 -0.033987825
-0.80554763 0.59161527 -0.032930184
-0.79778688 0.60191425 -0.035147307
-0.79080777 0.61143588 -0.027735053
-0.78972572 0.61313467 -0.019978827
-0.78321703 0.62148387 -0.01813512
-0.78053878 0.62493319 -0.014755022
-0.77133689 0.6362356 -0.015609572
-0.76560678 0.64325613 -0.0082343808
-0.76427723 0.6448451 -0.0074236546
-0.75559661 0.65502793 -0.003490675
-0.74521894 0.66681489 -0.0025760146
-0.73952151 0.67312372 -0.0035208745
-0.73295999 0.68025556 -0.0046932727
-0.72726452 0.68633009 -0.0061089388
-0.72440466 0.68936295 -0.0040742871
-0.93151538 0.22082826 0.28898786
-0.93661446 0.24070658 0.25458534
-0.94340755 0.26700696 0.19669642
-0.9376054 0.31514296 0.14690483
-0.92699322 0.36419286 0.089705756
-0.90634646 0.41967774 0.049057971
-0.88702297 0.46127363 0.020417961
-0.86981427 0.49321183 0.01285422
-0.86218176 0.50658517 0.0037523845
-0.85642184 0.51625144 0.0051082564
-0.8516286 0.52412767 0.0043479794
-0.84781932 0.53027811 0.002744833
-0.83965248 0.54311281 -0.0034925586
-0.82744714 0.56150773 -0.0063479182
-0.81965647 0.57276768 -0.010022521
-0.80594246 0.59174322 -0.017225603
-0.79383963 0.60778028 -0.020537344
-0.78698107 0.61669066 -0.018799648
-0.7845053 0.61995988 -0.014183755
-0.78195816 0.62324312 -0.010462076
-0.77758976 0.62871204 -0.0086798835
-0.76791223 0.6405216 -0.0065483515
-0.76293936 0.6464683 -0.0015052246
-0.7600145 0.64990438 0.0015026213
-0.75121137 0.66005509 0.0029607167
-0.74392435 0.66824524 0.0049868956
-0.73838768 0.67436557 0.0038355959
-0.73230589 0.68097073 0.0026355675
-0.72697081 0.68666837 2.6696354e-05
-0.72419477 0.68959536 0.00041676019
-0.90408189 0.22447733 0.36365625
-0.91490845 0.21762635 0.3399725
-0.92311493 0.24030818 0.30018462
-0.927302 0.2867533 0.24059
-0.92270319 0.33081616 0.19793811
-0.90524833 0.4048314 0.12898448
-0.88592739 0.45580618 0.085868431
-0.87204193 0.48527546 0.063644324
-0.85995092 0.50807164 0.048452232
-0.8541396 0.51879247 0.036054345
-0.85020268 0.52535962 0.033950888
-0.84408602 0.53551455 0.027257184
-0.83902798 0.54361022 0.022802868
-0.82638273 0.56294487 0.01358881
-0.81499274 0.57944724 0.0052667253
-0.80624142 0.59158492 0.0014348671
-0.79230324 0.61007097 -0.0083058044
-0.78410306 0.62052274 -0.011572483
-0.77884956 0.62713999 -0.0094230882
-0.77967667 0.62617335 -0.0033503309
-0.77290208 0.63452109 0.0023167547
-0.76479801 0.64424244 0.0059735644
-0.75909095 0.65092509 0.008801012
-0.75467388 0.65602885 0.0096683285
-0.75080141 0.66046717 0.0089644128
-0.74309496 0.66910048 0.010696999
-0.73870497 0.67394784 0.010453301
-0.73349787 0.67963521 0.0087667102
-0.72780048 0.68576327 0.0059330971
-0.72241705 0.69144604 0.0039962561
-0.87785797 0.1903657 0.43946136
-0.8905294 0.20033786 0.40843866
-0.89834517 0.2194233 0.38056453
-0.9096004 0.25711967 0.3263688
-0.91204042 0.30023729 0.27935611
-0.90121694 0.37143207 0.22326275
-0.88532855 0.44001211 0.15027544
-0.86985267 0.4806439 0.11107554
-0.85837521 0.50481672 0.091389704
-0.85342162 0.51661692 0.069126637
-0.84840753 0.52572276 0.061808133
-0.8410565 0.53829896 0.053462097
-0.83571598 0.54729291 0.045268939
-0.82805002 0.55973564 0.032080811
-0.81568152 0.57813379 0.020615017
-0.80530064 0.59265643 0.015787354
-0.79320728 0.60891443 0.0067396179
-0.7823797 0.62280167 0.00029102101
-0.77775909 0.62856189 -0.00086523646
-0.77560757 0.63120964 0.002700515
-0.76944161 0.6386654 0.0081315782
-0.76345653 0.64575952 0.011347627
-0.75765871 0.6524866 0.014646356
-0.75090025 0.6602349 0.015449818
-0.74698915 0.66468194 0.014322425
-0.74199843 0.67018161 0.017173691
-0.73914513 0.67330363 0.018074828
-0.73530336 0.67757187 0.015010966
-0.72884746 0.68459373 0.010621536
-0.72264003 0.69117886 0.0079482647
-0.86069008 0.17229292 0.47909054
-0.86925148 0.18046464 0.4602547
-0.87629385 0.19799008 0.43921408
-0.88302897 0.22194363 0.4135225
-0.89293132 0.26820119 0.36158232
-0.89086746 0.34248076 0.29843273
-0.8816112 0.41354344 0.22747202
-0.8657938 0.47100708 0.16897758
-0.8579521 0.49443882 0.1394577
-0.85151261 0.51166039 0.11458589
-0.848162 0.52140317 0.093594704
-0.84055606 0.53516893 0.084022214
-0.83356449 0.54716352 0.076041599
-0.82706084 0.55902378 0.058845405
-0.81613602 0.57623931 0.043246446
-0.80522632 0.59170657 0.038651222
-0.79345035 0.60812942 0.02480216
-0.78210505 0.62287058 0.018545367
-0.77499534 0.63186022 0.011613933
-0.77144524 0.63613786 0.014172523
-0.76693144 0.64153235 0.015887644
-0.7629071 0.64633966 0.014757813
-0.75659982 0.65359697 0.01917576
-0.75190772 0.65906995 0.016173647
-0.74431813 0.66756773 0.018543193
-0.73914307 0.67326039 0.019696853
-0.73769436 0.67484597 0.019747152
-0.73489105 0.67793953 0.018252365
-0.72992221 0.68341032 0.012802388
-0.72525675 0.68840312 0.010187764
-0.84886917 0.15190897 0.50630504
-0.85551417 0.16193192 0.49180642
-0.86050063 0.17999498 0.47659256
-0.86809009 0.20413569 0.45249113
-0.87351689 0.23535278 0.42611889
-0.88223013 0.29986366 0.36297629
-0.88034689 0.37176762 0.29458139
-0.86866876 0.43252891 0.24152293
-0.85616545 0.47987074 0.19158497
-0.84934651 0.50138683 0.16499014
-0.84639009 0.51499903 0.13564593
-0.83957332 0.53065563 0.1162809
-0.8335634 0.54186651 0.1074837
-0.82618606 0.55648878 0.087959291
-0.81900128 0.56894789 0.074399022
-0.8061093 0.58806723 0.066066137
-0.79182848 0.60883948 0.048188663
-0.78086628 0.62337189 0.040685844
-0.77387379 0.63251079 0.032395218
-0.76848215 0.63922215 0.028813762
-0.76489344 0.64357192 0.027444861
-0.76212362 0.64698714 0.023984026
-0.75821248 0.65164463 0.02175119
-0.75240054 0.6584568 0.018112532
-0.74491429 0.6668406 0.02064724
-0.73867354 0.67375951 0.02023684
-0.73704187 0.67561441 0.0177327
-0.73609198 0.67658961 0.019877088
-0.73244899 0.68061416 0.016818113
-0.72955511 0.68382424 0.011565084
-0.84012315 0.13426326 0.52551544
-0.84330115 0.14986863 0.51612263
-0.84911873 0.16620348 0.50137191
-0.85165899 0.18520291 0.49028241
-0.85816549 0.207527 0.46955781
-0.86823322 0.25807306 0.42375626
-0.8709548 0.32426012 0.36917897
-0.87183464 0.38800326 0.29892779
-0.8596599 0.45006434 0.24171666
-0.85270891 0.48191499 0.20160716
-0.84788138 0.49925122 0.17845279
-0.84197949 0.51591158 0.15781566
-0.83399668 0.53263574 0.14404413
-0.82512023 0.5513333 0.1233215
-0.81451334 0.5707544 0.10395884
-0.80363327 0.58720653 0.096757721
-0.78985977 0.60822932 0.078604252
-0.7787823 0.62354702 0.068463403
-0.7731706 0.63189212 0.054033049
-0.76774014 0.63916252 0.045236471
-0.76411299 0.64376139 0.041262696
-0.76075441 0.64794558 0.037673016
-0.75621051 0.65353535 0.032205793
-0.75213352 0.65845519 0.027054135
-0.74378397 0.66798949 0.023988517
-0.73732892 0.67519078 0.021528315
-0.73693135 0.67564725 0.020808182
-0.73647367 0.67617974 0.019684663
-0.73272486 0.68028307 0.018144656
-0.73301374 0.68006067 0.014434134
-0.82460752 0.12588068 0.55152197
-0.82940657 0.13798217 0.54133692
-0.83620889 0.15935654 0.52474774
-0.83898042 0.1697381 0.51701144
-0.84822575 0.18731349 0.49540562
-0.85901608 0.21502754 0.46460148
-0.86811076 0.27342066 0.41427629
-0.87379049 0.34551836 0.34220934
-0.86527367 0.41784102 0.27696636
-0.85699903 0.45455428 0.24276132
-0.85151115 0.47661215 0.21856263
-0.84518358 0.49888939 0.19176571
-0.83629472 0.52031409 0.17287099
-0.8243062 0.54504324 0.15312462
-0.81264988 0.56762138 0.13193236
-0.79988622 0.58793063 0.12049737
-0.78653584 0.60797502 0.10829467
-0.77409422 0.62509581 0.10016669
-0.77008407 0.63251567 0.083032807
-0.76747019 0.63730245 0.069534884
-0.76294005 0.64341482 0.062768171
-0.75845978 0.64948898 0.05387788
-0.75444971 0.65461463 0.047805093
-0.74811291 0.66228334 0.041326258
-0.74110641 0.67065182 0.031423304
-0.73669359 0.67567708 0.027258719
-0.73588073 0.67666579 0.024555084
-0.73507383 0.67763497 0.021847371
-0.73305381 0.67988022 0.019874622
-0.73464305 0.67825656 0.01635911
-0.80888552 0.10419702 0.57865983
-0.81646164 0.11710324 0.56540006
-0.82606749 0.14100453 0.54564661
-0.83270542 0.15968258 0.53019163
-0.84293961 0.1721165 0.50973398
-0.85405918 0.18745952 0.4852235
-0.86315259 0.23535748 0.44673757
-0.86861333 0.30288752 0.39213521
-0.86699163 0.37689666 0.32599757
-0.85657288 0.4336987 0.27962179
-0.85047736 0.46191562 0.25163907
-0.84431641 0.48626218 0.22511973
-0.8376483 0.50801929 0.20065326
-0.8263744 0.53359925 0.17993663
-0.81140629 0.56205408 0.16035911
-0.79549697 0.58895695 0.14252819
-0.78294732 0.60843468 0.12961768
-0.77341426 0.62174032 0.12356924
-0.76676283 0.63216349 0.1115531
-0.76278011 0.63890962 0.099804838
-0.75772822 0.64588782 0.093149686
-0.75545684 0.65028517 0.080088473
-0.7505203 0.65698441 0.071349585
-0.74299656 0.66620547 0.064236962
-0.73925824 0.6713064 0.053338285
-0.73455917 0.67706258 0.044822889
-0.73415373 0.67801085 0.03632605
-0.73335613 0.67922216 0.029086895
-0.7326538 0.68008202 0.02658676
-0.73320469 0.67971213 0.020057414
-0.79441221 0.08475667 0.60143624
-0.79990356 0.10227541 0.59134934
-0.81309978 0.12378123 0.56881188
-0.82627049 0.13959828 0.54570084
-0.83681821 0.1530156 0.52566293
-0.84930221 0.1729981 0.49875587
-0.85860356 0.21782233 0.46406181
-0.86382602 0.2735459 0.42305703
-0.86190418 0.34686545 0.36987233
-0.85571508 0.40430745 0.32293528
-0.84738481 0.44541123 0.28904638
-0.84179243 0.47348676 0.25922152
-0.83798389 0.49446868 0.23083268
-0.82706597 0.52306609 0.20582456
-0.81222345 0.55420287 0.18207759
-0.79386649 0.58745828 0.15706295
-0.78002008 0.60879333 0.14470438
-0.7722363 0.6207923 0.13515922
-0.76662459 0.6288496 0.12974941
-0.76173569 0.63606963 0.12318349
-0.75594539 0.64431692 0.11576821
-0.75082419 0.65157267 0.10824093
-0.74563165 0.65906152 0.098343052
-0.74139004 0.66519386 0.088644975
-0.73512719 0.67349032 0.077451917
-0.73301255 0.67667345 0.069322754
-0.73155617 0.67927469 0.058407748
-0.73094235 0.68054442 0.050818913
-0.73211372 0.68002854 0.039631855
-0.73156046 0.68091033 0.034357037
-0.77661343 0.061152793 0.62700233
-0.78752445 0.084941841 0.6104016
-0.79949901 0.10609765 0.59122299
-0.81080147 0.11782999 0.57333853
-0.82181182 0.13501235 0.55353139
-0.83558796 0.15170631 0.52799429
-0.84779396 0.18574489 0.49673357
-0.85666244 0.2388018 0.457278
-0.86146731 0.31130329 0.4012036
-0.85488146 0.37803792 0.3553379
-0.84560226 0.43080045 0.31522657
-0.83947277 0.45888112 0.29105599
-0.83719266 0.47943556 0.26315393
-0.82833311 0.50803683 0.23614154
-0.81263478 0.54471902 0.2071374
-0.7932788 0.58301733 0.175498
-0.77937318 0.60642946 0.15754605
-0.76950154 0.62102777 0.14896942
-0.7641082 0.62932749 0.14172358
-0.75842765 0.63702163 0.13780762
-0.75325748 0.64439052 0.13177262
-0.74711037 0.65268793 0.12579575
-0.74322732 0.65850358 0.11826322
-0.73767853 0.66562685 0.1130101
-0.73311134 0.67176162 0.10622655
-0.73020265 0.67644107 0.096081076
-0.72755011 0.68062159 0.086168976
-0.73055757 0.67928963 0.069650803
-0.73142057 0.67923932 0.060480482
-0.72658799 0.68469294 0.057144296
-0.76093827 0.037396333 0.64774568
-0.77013892 0.060083714 0.63504015
-0.78095289 0.079814516 0.61946931
-0.79064476 0.095584162 0.60476816
-0.80244022 0.10963024 0.58657557
-0.81789995 0.12135928 0.56241586
-0.83412229 0.14330001 0.53263976
-0.84995425 0.19152148 0.4908129
-0.86052256 0.26864581 0.43281676
-0.85502873 0.350451 0.38224334
-0.84193866 0.41337162 0.34678985
-0.83991911 0.43964536 0.31819467
-0.83687959 0.46867228 0.28280531
-0.82831067 0.49635813 0.25986544
-0.81397842 0.53302348 0.2309223
-0.79472884 0.57267334 0.20112514
-0.77844757 0.6017873 0.17852568
-0.76799522 0.61932154 0.16316918
-0.76186529 0.62895184 0.15485758
-0.75639024 0.63703895 0.14850988
-0.7519346 0.64361997 0.14264532
-0.74675112 0.65062336 0.138029
-0.74039212 0.6589714 0.1325753
-0.73507982 0.66584595 0.1276982
-0.73138091 0.67140395 0.11957713
-0.72673438 0.67709011 0.1157848
-0.72313845 0.68128949 0.11364601
-0.72276704 0.68313766 0.10455019
-0.72650604 0.68154811 0.087642144
-0.72149899 0.68772779 0.080434464
-0.75003376 0.018036411 0.66115357
-0.75438107 0.041153988 0.65514545
-0.76423484 0.056268724 0.64247875
-0.77420684 0.071753388 0.62885231
-0.78953723 0.082309545 0.60815796
-0.80255018 0.096553628 0.58871946
-0.81995137 0.1141513 0.56093603
-0.84000071 0.14488181 0.52288437
-0.85365608 0.2287767 0.46790225
-0.85150179 0.31080949 0.42230577
-0.8433381 0.38261405 0.37734247
-0.83644645 0.42670029 0.3439247
-0.83491081 0.4533778 0.31204569
-0.82881312 0.48156986 0.28488469
-0.81459718 0.51820394 0.26056881
-0.79716255 0.55898848 0.22817481
-0.77902357 0.59252677 0.20502269
-0.76807982 0.61519633 0.17772693
-0.76060961 0.62767011 0.16584104
-0.75471104 0.63621432 0.16013303
-0.75008193 0.64332313 0.15333768
-0.7470127 0.64860286 0.14589843
-0.74142458 0.65650947 0.13887012
-0.73382558 0.66530009 0.13738924
-0.72700044 0.67433753 0.12938027
-0.72335095 0.67862004 0.12742938
-0.71856588 0.68387172 0.12642211
-0.71844737 0.68495729 0.12110693
-0.71704386 0.68710983 0.11716729
-0.71180843 0.69315928 0.11339735
-0.73944306 0.0080168364 0.67317137
-0.74224107 0.027575429 0.66956537
-0.7516336 0.039582282 0.65839211
-0.76370559 0.055643466 0.64316217
-0.77923365 0.067551854 0.6230824
-0.79286719 0.079295155 0.60421346
-0.80641243 0.093877774 0.5838544
-0.82348422 0.11953162 0.55460431
-0.84307491 0.19257914 0.50213342
-0.84666169 0.27178386 0.45749045
-0.84301833 0.35360568 0.40531854
-0.83444542 0.40910099 0.36923872
-0.83305986 0.43769402 0.33828274
-0.82543498 0.47152782 0.31035238
-0.81026037 0.51200246 0.28518698
-0.79534389 0.54949595 0.25589509
-0.77915379 0.58432369 0.22690351
-0.76970043 0.60673612 0.19857624
-0.7590715 0.62324723 0.18807805
-0.75348707 0.63346938 0.17599369
-0.75020204 0.64070775 0.16337221
-0.74508953 0.64876635 0.15473789
-0.74021284 0.65490628 0.15225871
-0.73494812 0.66194734 0.14723103
-0.72696229 0.67196853 0.14136519
-0.71934721 0.6808752 0.13765373
-0.71366253 0.68719178 0.13584274
-0.71283408 0.68909392 0.13044978
-0.71125323 0.69017817 0.13331521
-0.70525408 0.69606718 0.13456286
-0.72533163 0.00093992252 0.68839897
-0.73070265 0.016541878 0.68249542
-0.74233749 0.02914221 0.6693921
-0.75637189 0.040116886 0.65291057
-0.77262343 0.053125354 0.63263791
-0.7872918 0.068227822 0.61279408