# vtk DataFile Version 2.0
Grain example
ASCII
DATASET UNSTRUCTURED_GRID
POINTS 900 float
17.865419 -3.8658579 -4.265574
17.455238 -4.4763438 -4.2058424
17.031507 -5.0516632 -4.1753813
16.568689 -5.6394843 -4.1502787
16.08207 -6.2093838 -4.1040489
15.583645 -6.787128 -4.0614297
15.073439 -7.376788 -4.033133
14.565758 -7.9547528 -4.0130263
14.065355 -8.489524 -4.0343175
13.539453 -9.0263249 -4.0386706
13.049699 -9.5287482 -4.0393762
12.563471 -10.014442 -4.0476105
12.079932 -10.497971 -4.0475068
11.635409 -10.945386 -4.035655
11.187442 -11.399444 -4.0232262
10.717241 -11.86563 -4.0180102
10.179268 -12.381645 -4.0373075
9.6125235 -12.91305 -4.0602118
9.0489754 -13.438369 -4.0932732
8.3499052 -14.057671 -4.1546533
7.4704475 -14.719308 -4.1613267
6.5525922 -15.37879 -4.155496
5.6059598 -16.051368 -4.1622521
4.6775035 -16.701 -4.1705104
3.7600042 -17.329315 -4.1565575
2.9045726 -17.905344 -4.1279208
2.0531996 -18.469897 -4.0893861
1.1985841 -19.004989 -4.0407186
0.38052467 -19.488933 -3.9505828
-0.44960889 -19.980649 -3.8494548
17.938571 -3.5908745 -4.8083192
17.527598 -4.251477 -4.7326977
17.102534 -4.8744698 -4.6661203
16.597755 -5.5199487 -4.637328
16.109096 -6.0935493 -4.5906913
15.601977 -6.6831362 -4.55489
15.094851 -7.2704278 -4.5280693
14.569816 -7.880739 -4.5143495
14.065642 -8.43509 -4.5287113
13.547976 -8.96982 -4.5381541
13.051023 -9.475647 -4.5348388
12.543886 -9.9780476 -4.5428223
12.060103 -10.464426 -4.5433164
11.612558 -10.916062 -4.5305263
11.157864 -11.373226 -4.5239195
10.664599 -11.847282 -4.5434048
10.142579 -12.347338 -4.5597554
9.5704314 -12.879001 -4.5886241
8.9976568 -13.410906 -4.6459285
8.2752534 -14.026408 -4.699891
7.3715945 -14.692889 -4.6864724
6.4418075 -15.362341 -4.675139
5.4881983 -16.029995 -4.6853903
4.5807505 -16.658571 -4.6783988
3.6812253 -17.276601 -4.6548069
2.8267529 -17.839193 -4.6184209
1.976858 -18.390979 -4.5726714
1.1154302 -18.909779 -4.4669599
0.29222144 -19.395721 -4.3642296
-0.53749674 -19.866708 -4.2674218
18.009027 -3.291165 -5.3521772
17.597639 -3.9724954 -5.2722351
17.150756 -4.6623304 -5.208642
16.629712 -5.3547391 -5.1620971
16.137635 -5.968758 -5.0951659
15.619258 -6.5732218 -5.0652414
15.101686 -7.1827566 -5.0468307
14.575861 -7.787479 -5.0502689
14.065388 -8.3708105 -5.0584911
13.542333 -8.9089818 -5.0747643
13.043306 -9.4121431 -5.0693102
12.526434 -9.9250536 -5.0830426
12.0406 -10.414245 -5.0732843
11.58277 -10.876784 -5.0563704
11.094821 -11.349085 -5.0694294
10.59217 -11.836184 -5.0859794
10.083018 -12.320354 -5.106888
9.5177044 -12.850337 -5.1639912
8.9231922 -13.386548 -5.2315496
8.1927959 -13.988621 -5.276428
7.2668508 -14.653524 -5.2665063
6.3257883 -15.320874 -5.2612769
5.3904109 -15.981128 -5.2388407
4.4826826 -16.607593 -5.2118903
3.597195 -17.201936 -5.1675638
2.7393889 -17.768859 -5.1204546
1.8959885 -18.285516 -5.0265274
1.0375568 -18.784886 -4.9224532
0.19576379 -19.263643 -4.8146525
-0.60900403 -19.678669 -4.6911278
18.054143 -2.9710177 -5.9019761
17.664489 -3.672193 -5.8230629
17.161789 -4.4289366 -5.7679639
16.649157 -5.1556964 -5.7172055
16.156538 -5.8178703 -5.6436327
15.635731 -6.4508345 -5.6196918
15.111506 -7.0685117 -5.6085054
14.577511 -7.6880376 -5.6103166
14.049811 -8.3052881 -5.6062335
13.538213 -8.8437767 -5.6112461
13.032273 -9.3547462 -5.6127504
12.514495 -9.8664904 -5.6255472
12.026273 -10.353488 -5.6231621
11.52719 -10.829953 -5.6393049
11.022792 -11.318961 -5.6551714
10.506082 -11.813668 -5.6833265
9.9817513 -12.310657 -5.7308704
9.4336777 -12.81491 -5.788086
8.8149069 -13.355623 -5.8498214
8.0681861 -13.952537 -5.8821222
7.151157 -14.609919 -5.8762942
6.2274126 -15.264122 -5.8554097
5.2954657 -15.909808 -5.8314148
4.392037 -16.527128 -5.8001566
3.5192899 -17.108767 -5.7371539
2.6577077 -17.646077 -5.6507052
1.8072122 -18.136933 -5.5353865
0.94976467 -18.629493 -5.410959
0.1225269 -19.061207 -5.2645086
-0.64555474 -19.450552 -5.1064405
18.002679 -2.6062065 -6.4119709
17.628876 -3.3823775 -6.3736568
17.178025 -4.1510907 -6.3477196
16.652034 -4.9365887 -6.3035724
16.150035 -5.6264106 -6.2501891
15.638201 -6.3053487 -6.2063414
15.110512 -6.9524882 -6.1910895
14.573735 -7.5833755 -6.1844429
14.046361 -8.201043 -6.1806944
13.532148 -8.7660463 -6.1718322
13.021344 -9.2865811 -6.1725698
12.495031 -9.8079163 -6.1820889
11.980165 -10.302141 -6.2017782
11.462264 -10.794484 -6.2236832
10.942746 -11.294309 -6.2656878
10.409007 -11.798723 -6.3135735
9.8648432 -12.295703 -6.3667176
9.2919578 -12.804622 -6.427376
8.6737832 -13.32282 -6.4882767
7.9054464 -13.924468 -6.5166283
7.0440624 -14.545467 -6.5007831
6.1162264 -15.194414 -6.4756818
5.1867295 -15.835173 -6.4328427
4.3027687 -16.423132 -6.3830495
3.418287 -16.981357 -6.300916
2.5644712 -17.478579 -6.1802303
1.7176521 -17.958481 -6.0572913
0.87380725 -18.393151 -5.8978482
0.089539305 -18.793598 -5.7172632
-0.65935775 -19.186389 -5.522872
17.920436 -2.2742553 -6.8712857
17.520657 -3.1096424 -6.8406588
17.075345 -3.9527567 -6.8480924
16.608106 -4.7378261 -6.8441084
16.106333 -5.4469142 -6.7960542
15.582054 -6.162752 -6.7439796
15.062114 -6.8565766 -6.698571
14.532942 -7.5167447 -6.6761977
14.00756 -8.1306485 -6.6728055
13.497072 -8.7176598 -6.6532045
12.956633 -9.2438621 -6.663946
12.422045 -9.7680948 -6.6781707
11.888846 -10.285499 -6.7011145
11.343096 -10.81541 -6.7380112
10.802536 -11.325984 -6.7828748
10.247339 -11.832511 -6.8310174
9.687093 -12.332281 -6.8882846
9.0824016 -12.842063 -6.9513688
8.458665 -13.356984 -6.9979758
7.6895848 -13.939845 -7.0159744
6.8738996 -14.530394 -6.9992854
5.9527751 -15.156338 -6.9726097
5.0205613 -15.780688 -6.9379045
4.1493443 -16.334956 -6.8590032
3.2738841 -16.859013 -6.7402818
2.4157675 -17.345665 -6.6018088
1.6003566 -17.761213 -6.4447273
0.79176617 -18.1648 -6.2699105
0.068352755 -18.554933 -6.0682764
-0.66035837 -18.94129 -5.869197
17.785019 -2.0309007 -7.2699259
17.374608 -2.8981199 -7.288556
16.931399 -3.7479715 -7.3088392
16.474805 -4.5765907 -7.3046458
16.017853 -5.3098793 -7.2746156
15.506855 -6.0129044 -7.2474089
14.991315 -6.720994 -7.1992461
14.472979 -7.4168789 -7.1554895
13.954732 -8.0594583 -7.1358864
13.419248 -8.6655652 -7.1282748
12.872409 -9.2131509 -7.1355681
12.318214 -9.753647 -7.1791166
11.762196 -10.29022 -7.2203627
11.201409 -10.825847 -7.2628847
10.641082 -11.340564 -7.3049079
10.064247 -11.855633 -7.35971
9.4782959 -12.366391 -7.416704
8.8583064 -12.882257 -7.4757333
8.2034156 -13.400021 -7.520944
7.4570919 -13.950277 -7.526592
6.6634055 -14.508999 -7.5164403
5.7779308 -15.105378 -7.4774696
4.8663822 -15.691275 -7.4274089
3.9906171 -16.228598 -7.3144398
3.1230863 -16.708203 -7.1796216
2.3034085 -17.127893 -7.0135261
1.5210013 -17.527702 -6.8268443
0.7929632 -17.921515 -6.6158282
0.072610422 -18.30495 -6.4192957
-0.64671807 -18.687682 -6.2184753
17.601458 -1.8481637 -7.642233
17.21306 -2.6793383 -7.7238797
16.769956 -3.5480299 -7.7636931
16.29959 -4.4029639 -7.7715215
15.863109 -5.1607979 -7.7429149
15.416927 -5.8826199 -7.7171889
14.916474 -6.5695878 -7.6977015
14.380727 -7.280519 -7.6748488
13.876524 -7.9396563 -7.6357174
13.338954 -8.5675081 -7.6229141
12.773493 -9.1751456 -7.6527612
12.197033 -9.7436938 -7.7029752
11.616875 -10.294844 -7.745984
11.026801 -10.831491 -7.8023021
10.443736 -11.35228 -7.8639678
9.8653995 -11.866057 -7.9221925
9.2567926 -12.379066 -7.9786583
8.6160867 -12.899239 -8.0342413
7.939016 -13.412667 -8.0678819
7.1944382 -13.953929 -8.053112
6.4438131 -14.471612 -8.0278665
5.5886675 -15.052046 -8.0102076
4.6691022 -15.610217 -7.9208068
3.8160062 -16.096723 -7.8001386
2.9886505 -16.532861 -7.6355938
2.2097581 -16.926553 -7.4544803
1.4911034 -17.316741 -7.2417241
0.76947866 -17.705136 -7.0312498
0.063864284 -18.075138 -6.8244143
-0.65030986 -18.434143 -6.6087591
17.398407 -1.6823748 -8.0153257
17.003318 -2.5130292 -8.1114458
16.573029 -3.3611836 -8.2169351
16.113871 -4.2132891 -8.250888
15.696661 -4.9751532 -8.2173752
15.262042 -5.7247466 -8.1926325
14.792467 -6.4346907 -8.1908815
14.26788 -7.1343919 -8.1870654
13.77436 -7.7877395 -8.1825049
13.235776 -8.470336 -8.1741014
12.639086 -9.117793 -8.2028275
12.043113 -9.6989585 -8.2574523
11.436119 -10.265259 -8.3101307
10.838606 -10.820459 -8.3711276
10.24663 -11.352574 -8.4345255
9.6353063 -11.871115 -8.5050141
9.0123136 -12.376968 -8.5784974
8.3640703 -12.884296 -8.6254628
7.6549938 -13.41054 -8.6598015
6.8854944 -13.962384 -8.6643869
6.1128153 -14.496348 -8.6667919
5.3372355 -15.000476 -8.5895979
4.4963284 -15.506475 -8.4465171
3.6927503 -15.933455 -8.2766172
2.8929328 -16.341244 -8.0921418
2.1755168 -16.72771 -7.8816354
1.466167 -17.104555 -7.6716761
0.75134451 -17.475378 -7.4587479
0.046903862 -17.822597 -7.2490013
-0.67255796 -18.166704 -7.0365212
17.159977 -1.551074 -8.3830214
16.758416 -2.3728813 -8.5011322
16.334549 -3.2166325 -8.6098398
15.904508 -4.037784 -8.7034479
15.493595 -4.7753073 -8.7109178
15.053085 -5.5403463 -8.6958832
14.601459 -6.2928567 -8.6890642
14.132419 -6.9966249 -8.7148221
13.620327 -7.6675692 -8.7406552
13.081224 -8.3457983 -8.7595225
12.468312 -9.0474404 -8.7820736
11.852613 -9.6518448 -8.8246131
11.240577 -10.212982 -8.8868474
10.633254 -10.761369 -8.9680914
10.020097 -11.305269 -9.0489309
9.3822574 -11.850879 -9.1373084
8.7221042 -12.392702 -9.2285702
8.0281739 -12.905368 -9.2888484
7.2984707 -13.428127 -9.3177101
6.5250621 -13.970642 -9.3219101
5.8005212 -14.455351 -9.2528944
5.1400624 -14.882553 -9.1355741
4.3936432 -15.305846 -8.9558704
3.6020986 -15.721504 -8.7575789
2.8658508 -16.124013 -8.5288685
2.1605344 -16.50301 -8.3150516
1.4456929 -16.863176 -8.1040504
0.72308585 -17.215894 -7.8917249
0.016776927 -17.550084 -7.6820008
-0.69801938 -17.88703 -7.4695966
16.878076 -1.4281289 -8.78556
16.478319 -2.2502328 -8.9001857
16.064139 -3.0725184 -9.0193733
15.635098 -3.8863414 -9.1212994
15.251546 -4.6098943 -9.1773779
14.816907 -5.3647164 -9.211627
14.354676 -6.1430329 -9.2380646
13.907194 -6.858077 -9.2576308
13.43816 -7.5362867 -9.2909322
12.872369 -8.2323143 -9.329881
12.247901 -8.9398388 -9.365291
[...]
POINT_DATA 900
VECTORS normals float
0.78296083 -0.59696858 -0.17493099
0.77606183 -0.61250353 -0.15022471
0.77025844 -0.62569159 -0.12333679
0.76134908 -0.63962622 -0.10595224
0.75709198 -0.64690682 -0.0912321
0.75093903 -0.65584259 -0.077207956
0.7457621 -0.66291599 -0.066191271
0.7407402 -0.66949904 -0.055452502
0.73399774 -0.67728473 -0.050326082
0.72736371 -0.68463806 -0.047040051
0.72226052 -0.69015528 -0.045004849
0.71614446 -0.69650735 -0.044884563
0.70957791 -0.70296974 -0.048298418
0.70321267 -0.70915716 -0.050873066
0.69519499 -0.7173603 -0.045805242
0.68696646 -0.72525243 -0.045672655
0.67956293 -0.73178344 -0.051838536
0.66951681 -0.74028645 -0.061018105
0.65219944 -0.75437529 -0.074523884
0.62897099 -0.77158965 -0.095104718
0.60214806 -0.78890462 -0.12266707
0.5876726 -0.79655743 -0.14190547
0.57978454 -0.79989926 -0.15495501
0.57303739 -0.80424125 -0.15755681
0.56856766 -0.80420577 -0.17315856
0.54816829 -0.81224301 -0.19943122
0.50809879 -0.82542481 -0.24598682
0.47629454 -0.83032614 -0.28931299
0.44587667 -0.83223894 -0.32950318
0.4093271 -0.83411453 -0.36973541
0.79341705 -0.56533074 -0.22558931
0.78430232 -0.58964112 -0.19285545
0.77749584 -0.60539086 -0.1703001
0.76423965 -0.62942345 -0.14058406
0.75870163 -0.64089489 -0.11672867
0.75475924 -0.648274 -0.10039575
0.75141141 -0.65435019 -0.08489246
0.74449254 -0.66353491 -0.073839586
0.73618056 -0.67370158 -0.064531919
0.72877999 -0.68221943 -0.058790905
0.72192655 -0.68943795 -0.059138576
0.71479771 -0.69677247 -0.059769263
0.70841127 -0.70279464 -0.065062807
0.7015788 -0.70918861 -0.069560804
0.69338644 -0.71695512 -0.072045813
0.68393998 -0.7254774 -0.076867775
0.67503185 -0.73357963 -0.078695071
0.6638363 -0.74234867 -0.090773459
0.64255438 -0.75897506 -0.10526506
0.61757068 -0.77663765 -0.12425949
0.59088084 -0.79296519 -0.14854642
0.58054326 -0.79804021 -0.16155913
0.57503328 -0.79931612 -0.17444332
0.56782257 -0.80319548 -0.18015146
0.55426381 -0.80757496 -0.20152991
0.52958836 -0.81407963 -0.23834959
0.48236998 -0.82914534 -0.28255478
0.44659731 -0.83146427 -0.33048149
0.41662404 -0.82772074 -0.37590262
0.38276949 -0.82456177 -0.41663582
0.79848199 -0.53098968 -0.28368377
0.79008388 -0.56293761 -0.24262875
0.78378327 -0.58592927 -0.20584137
0.76930083 -0.61534407 -0.1718369
0.7641053 -0.62825372 -0.14642529
0.75855844 -0.63859144 -0.12957651
0.75689063 -0.64411099 -0.11062374
0.74911199 -0.65486854 -0.099892049
0.73906337 -0.66792663 -0.087517766
0.72955799 -0.67925055 -0.079773575
0.7192778 -0.69036405 -0.077697691
0.71114151 -0.69832953 -0.081324137
0.70501738 -0.70389894 -0.086468354
0.69606759 -0.71187631 -0.093391843
0.68930676 -0.7178713 -0.097555025
0.67859258 -0.72731782 -0.10257142
0.66871583 -0.73568273 -0.10765714
0.65614273 -0.7456595 -0.1160544
0.63520281 -0.76104614 -0.13162888
0.60728084 -0.78004345 -0.15080516
0.57990376 -0.7966745 -0.1703566
0.57389435 -0.79783215 -0.18468661
0.56658262 -0.80012996 -0.19691667
0.55930963 -0.80294698 -0.20603128
0.53816792 -0.81084656 -0.23000682
0.50218318 -0.82092652 -0.27183028
0.4544791 -0.83028085 -0.32261812
0.41631181 -0.83170464 -0.36735796
0.38500545 -0.82477198 -0.41415212
0.34676559 -0.82410562 -0.44788788
0.80455549 -0.48263609 -0.34605328
0.80026382 -0.52051167 -0.29773381
0.78890444 -0.55635457 -0.26095856
0.77645168 -0.59125271 -0.21804362
0.76686874 -0.61306406 -0.18990731
0.76348973 -0.62579784 -0.15956345
0.76012528 -0.63382111 -0.14310961
0.75286073 -0.64548887 -0.12862678
0.74023071 -0.66235917 -0.11549381
0.7289882 -0.67630877 -0.10574805
0.71774294 -0.68876086 -0.10224263
0.70726368 -0.69855756 -0.10860673
0.70096157 -0.70427187 -0.11249005
0.69274852 -0.71164374 -0.1168874
0.68247803 -0.72058079 -0.12242166
0.6729416 -0.72835612 -0.12902312
0.66244968 -0.73666318 -0.13596978
0.64649896 -0.74863957 -0.14689416
0.62049547 -0.76791064 -0.1590554
0.5934518 -0.78513147 -0.17715399
0.56960671 -0.79934606 -0.19129577
0.5634622 -0.79971937 -0.2072662
0.55696408 -0.80068165 -0.22068055
0.54214262 -0.806194 -0.23692324
0.50874206 -0.81699654 -0.27147407
0.46321347 -0.82642453 -0.32008713
0.41909262 -0.83010249 -0.36781956
0.38077959 -0.82971781 -0.40813632
0.34469488 -0.81948118 -0.45786029
0.31758899 -0.81650662 -0.48213501
0.80277337 -0.42647303 -0.41674412
0.80093562 -0.47665351 -0.36235832
0.79324182 -0.51506758 -0.32476577
0.78065206 -0.55694358 -0.28354226
0.77042751 -0.5878204 -0.24679675
0.76770303 -0.6039376 -0.21422283
0.76376531 -0.61746695 -0.1881412
0.75679619 -0.6302919 -0.17318099
0.7417345 -0.65350756 -0.1508569
0.72794464 -0.67126821 -0.13962665
0.71630905 -0.6849731 -0.13309094
0.70413517 -0.69724025 -0.13434917
0.69862616 -0.70216127 -0.13744467
0.68858068 -0.71015901 -0.14673384
0.67869469 -0.71862143 -0.1515149
0.6674411 -0.72807587 -0.15629432
0.65351197 -0.73886251 -0.16432982
0.63324457 -0.75334121 -0.17742135
0.60831895 -0.77092589 -0.18873612
0.57938654 -0.78977131 -0.20142619
0.56229686 -0.79925033 -0.2121819
0.55339528 -0.79976348 -0.23266293
0.54124489 -0.8022858 -0.25177661
0.51879862 -0.80745222 -0.28083608
0.47164184 -0.8214051 -0.32069867
0.42016054 -0.82626905 -0.37515942
0.37266704 -0.82551028 -0.42385382
0.33907382 -0.82408571 -0.45377492
0.31721409 -0.81546884 -0.48413406
0.29068727 -0.8088923 -0.51107158
0.79866161 -0.36703692 -0.47688944
0.79495006 -0.43787 -0.41990983
0.78777768 -0.48176243 -0.38381153
0.78027122 -0.52219724 -0.34421922
0.77446604 -0.5543057 -0.304873
0.76795418 -0.58382941 -0.26341905
0.76870543 -0.59429225 -0.23645018
0.75942267 -0.61696414 -0.20647631
0.7440327 -0.6423821 -0.18374051
0.72705006 -0.66429811 -0.17351147
0.71393374 -0.68074514 -0.16396544
0.70377866 -0.6915579 -0.16261384
0.69389498 -0.70119123 -0.16383107
0.68309358 -0.71049247 -0.16906685
0.67200949 -0.71891464 -0.17766536
0.65892843 -0.72931248 -0.18416468
0.6420312 -0.74174607 -0.19392966
0.6213677 -0.75591067 -0.2061583
0.5978723 -0.77205198 -0.21560252
0.57191263 -0.7878852 -0.22836999
0.55142937 -0.8005401 -0.23465122
0.54098147 -0.80346943 -0.24854761
0.5217997 -0.80561362 -0.28055618
0.49419986 -0.81130856 -0.31232182
0.43870276 -0.82499905 -0.35625337
0.38447835 -0.82956554 -0.40496595
0.34839005 -0.82365264 -0.44746028
0.31356554 -0.82079073 -0.47747172
0.29023094 -0.81164856 -0.50694439
0.27269794 -0.81023346 -0.51880399
0.79015747 -0.32210242 -0.52144146
0.78518921 -0.39150109 -0.47979662
0.7826126 -0.44057948 -0.43978091
0.77534557 -0.48757139 -0.40138932
0.77062091 -0.52844421 -0.35621641
0.77029627 -0.55420269 -0.31544102
0.76505977 -0.57685478 -0.28622039
0.75962758 -0.59642361 -0.25931606
0.74523225 -0.62693459 -0.22711651
0.72944702 -0.6514534 -0.20860373
0.71467878 -0.67181192 -0.19468687
0.7018765 -0.68689392 -0.1885368
0.68818723 -0.70019046 -0.19008326
0.67612362 -0.71021158 -0.19610293
0.664782 -0.72021468 -0.19838275
0.64805693 -0.73281796 -0.20736455
0.6282557 -0.74628668 -0.21988851
0.60761857 -0.7600483 -0.23049135
0.58299985 -0.77564111 -0.24185127
0.56128247 -0.79063495 -0.24465967
0.53928169 -0.80268506 -0.25469975
0.51992043 -0.80690857 -0.28032358
0.50150021 -0.80747166 -0.31062368
0.46542022 -0.81430345 -0.34683412
0.40411246 -0.82246902 -0.40029718
0.35570874 -0.82585832 -0.43752637
0.32282661 -0.82303609 -0.46732706
0.29552143 -0.81618686 -0.4964938
0.27488661 -0.81707831 -0.50677449
0.25912456 -0.80884895 -0.52784263
0.78135534 -0.2942703 -0.55035336
0.77962038 -0.35988614 -0.51251734
0.77613664 -0.4126378 -0.4768039
0.77527113 -0.45940289 -0.43347856
0.77180367 -0.50353277 -0.38829608
0.76953837 -0.53134495 -0.35423615
0.76626284 -0.55376926 -0.32585407
0.75925653 -0.57624207 -0.30244769
0.74899387 -0.60051713 -0.27997743
0.73366698 -0.63234456 -0.24874307
0.7164901 -0.65881236 -0.22936481
0.69668387 -0.68241359 -0.22123128
0.68079197 -0.69869151 -0.21989194
0.66930294 -0.70965849 -0.2200418
0.65776421 -0.71769324 -0.22861026
0.63952755 -0.73181706 -0.23547463
0.61923817 -0.74564419 -0.24608704
0.59425433 -0.76238048 -0.25619874
0.56938192 -0.77807201 -0.26534538
0.54795787 -0.79141059 -0.27094547
0.52553206 -0.80287954 -0.28142584
0.50505936 -0.80697509 -0.30611478
0.46936849 -0.81484172 -0.34018553
0.42062847 -0.8213656 -0.38526645
0.37308846 -0.82222622 -0.42982444
0.32346216 -0.82585485 -0.4618831
0.30511115 -0.8179547 -0.48770615
0.28299791 -0.81793246 -0.50089786
0.25891795 -0.81455523 -0.51909659
0.24488748 -0.80877079 -0.53471481
0.77389794 -0.27004117 -0.57285229
0.76900055 -0.3271421 -0.54919596
0.76798256 -0.37668166 -0.51799008
0.77091904 -0.42217069 -0.4769232
0.77348563 -0.46558319 -0.43006078
0.76764388 -0.50660756 -0.39251963
0.76223512 -0.53283432 -0.36753939
0.7602293 -0.55269635 -0.34143542
0.7505052 -0.57833415 -0.31979923
0.73857206 -0.60374782 -0.29999979
0.71270651 -0.6439074 -0.27826731
0.69285399 -0.6698218 -0.26700581
0.67543109 -0.68913392 -0.26246387
0.66234243 -0.70412018 -0.25596343
0.6469799 -0.7176467 -0.2576824
0.62617547 -0.73335983 -0.2647407
0.60291556 -0.74926285 -0.27404017
0.58183339 -0.76320482 -0.28104858
0.56190501 -0.77542581 -0.28805829
0.53388312 -0.79100059 -0.29880912
0.50462788 -0.80080119 -0.32259597
0.47196732 -0.81348962 -0.33982567
0.4244074 -0.82459012 -0.37407151
0.38024945 -0.82369107 -0.42064639
0.32971728 -0.82591278 -0.45733424
0.30644087 -0.82475121 -0.47526774
0.2871057 -0.81845963 -0.4976888
0.27330016 -0.81367542 -0.51306854
0.24368437 -0.81338987 -0.52821856
0.21571089 -0.80605429 -0.55113092
0.76995613 -0.24684475 -0.58841756
0.76220634 -0.30020541 -0.57351391
0.76241515 -0.34228945 -0.54914576
0.76640051 -0.38843919 -0.51161045
0.76685449 -0.43092547 -0.47564423
0.76077726 -0.47690956 -0.44019909
0.75684963 -0.51255232 -0.40554749
0.75667663 -0.53418417 -0.37694527
0.7460585 -0.56230429 -0.35666596
0.73490849 -0.58692861 -0.33974156
0.71197603 -0.62730323 -0.31556423
0.68782521 -0.65930216 -0.30367277
0.67329667 -0.67967457 -0.29105682
0.65702137 -0.69589189 -0.28992653
0.63641498 -0.71398169 -0.29190085
0.6108881 -0.73351419 -0.29794743
0.58662598 -0.75000445 -0.30555407
0.56586824 -0.76361648 -0.31093891
0.54138325 -0.77799713 -0.31878619
0.50404693 -0.79494096 -0.33764711
0.46776736 -0.80715793 -0.36012466
0.42664522 -0.81935444 -0.38292579
0.38511184 -0.82839025 -0.40676586
0.33717439 -0.82762728 -0.44871653
0.30599445 -0.82559706 -0.47408532
0.27998129 -0.821959 -0.49597769
0.27158417 -0.81463586 -0.51245532
0.2528299 -0.8095186 -0.52986478
0.22562427 -0.80497547 -0.54873325
0.20025918 -0.80229527 -0.56233314
0.76514263 -0.23286063 -0.60027718
0.76006227 -0.28482759 -0.58410495
0.76093263 -0.31949751 -0.56471486
0.76380506 -0.35843791 -0.53677193
0.76746269 -0.39672664 -0.50359605
0.76401093 -0.4441652 -0.46797924
0.75878533 -0.48431246 -0.43552987
0.75493296 -0.51695107 -0.40353168
0.74887167 -0.53934059 -0.38510121
0.73131222 -0.57927324 -0.36003466
0.70850842 -0.6178217 -0.3410457
0.68738728 -0.64940516 -0.32522556
0.66914013 -0.67161565 -0.31809419
0.64720918 -0.69516996 -0.31282424
0.62144245 -0.7186055 -0.31211443
0.59379097 -0.74014408 -0.31559312
0.56831146 -0.75737092 -0.32157639
0.54495706 -0.77103937 -0.32942386
0.5132719 -0.78424518 -0.34858494
0.47475252 -0.79374644 -0.38023234
0.43928878 -0.80678176 -0.39513107
0.38557407 -0.82082656 -0.42139814
0.35203949 -0.82647041 -0.43933457
0.30808249 -0.82471126 -0.47427473
0.27823601 -0.81888343 -0.50201061
0.25935182 -0.81808054 -0.51330388
0.24202501 -0.81092511 -0.53275169
0.23109587 -0.80575362 -0.5453034
0.20498337 -0.79849855 -0.56602286
0.17735511 -0.79480248 -0.58037418
0.7600616 -0.22483637 -0.60971713
0.75531543 -0.26981815 -0.59724096
0.7601274 -0.30301882 -0.57479207
0.76165795 -0.33636921 -0.55383475
0.76315655 -0.37160804 -0.52867716
0.76397258 -0.41328984 -0.49551732
0.75875426 -0.45672601 -0.46442795
0.75356331 -0.49263186 -0.43526564
0.73859675 -0.52937497 -0.41741705
0.72082159 -0.56847652 -0.39654846
0.70311582 -0.59661308 -0.38688626
0.67946478 -0.64096173 -0.35706536
0.65903078 -0.6696658 -0.34238303
0.64001722 -0.69181427 -0.33432166
0.60911135 -0.71938044 -0.33387894
0.58510013 -0.73594296 -0.34065495
0.55230129 -0.75642133 -0.35041413
0.51597469 -0.7720764 -0.37103659
0.47586989 -0.78434526 -0.39793262
0.4345246 -0.79344317 -0.42618812
0.39888258 -0.8039929 -0.44100806
0.34511411 -0.8127108 -0.46946502
0.30441634 -0.81699922 -0.48973765
0.2707644 -0.81887407 -0.50609475
0.24702176 -0.81275012 -0.52765281
0.23132496 -0.80953488 -0.5395758
0.21993217 -0.80214014 -0.55515857
0.20370456 -0.79628145 -0.56959662
0.18195219 -0.7942737 -0.57967464
0.15093058 -0.7865575 -0.59878816
0.75390672 -0.22058861 -0.61884192
0.7557866 -0.25922165 -0.60132417
0.75647903 -0.28671847 -0.58781969
0.7590442 -0.31506127 -0.56972652
0.76148737 -0.34724161 -0.54732098
0.75520261 -0.39717074 -0.52146373
0.75196049 -0.4315426 -0.4983236
0.74062084 -0.47583856 -0.47440324
0.72938489 -0.50811368 -0.45805914
0.71013785 -0.54848452 -0.44143964
0.69544119 -0.58615119 -0.41567816
0.67649939 -0.6190201 -0.39895199
0.65633299 -0.65010459 -0.38287207
0.62729577 -0.67922792 -0.38098483
0.5910175 -0.70872566 -0.38523531
0.56096091 -0.73141308 -0.38775993
0.52507525 -0.75343737 -0.39576269
0.47904632 -0.76764777 -0.42571296
0.42893307 -0.78031693 -0.45510649
0.38061384 -0.78870783 -0.48277642
0.34602413 -0.79715809 -0.49477903
0.29720575 -0.80101117 -0.51966321
0.26480879 -0.8047204 -0.53132042
0.24353513 -0.80658588 -0.53861848
0.22229271 -0.80075874 -0.55621163
0.20487639 -0.79894311 -0.56543397
0.19374725 -0.79590361 -0.57358473
0.17839707 -0.78976499 -0.586895
0.15556323 -0.78207743 -0.60345255
0.13371258 -0.7798846 -0.61147442
0.75134064 -0.20774079 -0.62636332
0.75170499 -0.24104867 -0.61386899
0.75421032 -0.26497734 -0.60079431
0.75587455 -0.28793658 -0.58800186
0.755995 -0.32838594 -0.56624574
0.74768185 -0.36974374 -0.55159896
0.74393921 -0.39037646 -0.54236581
0.73550731 -0.43118009 -0.52260188
0.72003167 -0.47976831 -0.50137487
0.70247361 -0.52396673 -0.48165308
0.6898833 -0.54884589 -0.4720479
0.66748874 -0.58760026 -0.45736717
0.63860634 -0.63226821 -0.43865574
0.60155444 -0.66601643 -0.44108317
0.56251963 -0.70056786 -0.43906302
0.52328473 -0.72651258 -0.44536788
0.468026 -0.75376635 -0.46128945
0.41609449 -0.76848109 -0.48610924
0.3624861 -0.77872179 -0.51205098
0.31404852 -0.78503727 -0.53393821
0.29212434 -0.7889468 -0.54057961
0.26331118 -0.78809087 -0.55639914
0.23379729 -0.78867291 -0.56862453
0.21180743 -0.79020317 -0.57507961
0.19200792 -0.78897228 -0.58365717
0.18761056 -0.79020117 -0.58342471
0.16994358 -0.78745759 -0.59247761
0.15432424 -0.77980744 -0.60669958
0.13601632 -0.77731319 -0.61423429
0.10784514 -0.7691504 -0.62990244
0.74525857 -0.18899883 -0.63942873
0.74677575 -0.22031412 -0.62752503
0.7453848 -0.24925727 -0.61828175
0.74436129 -0.27218509 -0.60978811
0.74069326 -0.28908638 -0.60646727
0.73382946 -0.32872246 -0.59450472
0.73103648 -0.3699618 -0.57333579
0.71462316 -0.41143182 -0.56571866
0.70481011 -0.43494981 -0.56041179
0.68921349 -0.47577175 -0.54646684
0.66866476 -0.51880384 -0.53266313
0.64467757 -0.56560507 -0.51427787
0.61702569 -0.59972587 -0.5095176
0.57398389 -0.64571049 -0.50358758
0.52729271 -0.68547251 -0.50208548
0.46180093 -0.7264766 -0.50889257
0.41078403 -0.7447596 -0.52591788
0.35978724 -0.75866898 -0.54311558
0.30570818 -0.77198097 -0.55730413
0.26058902 -0.77648956 -0.57372234
0.24246694 -0.78211604 -0.57402464
0.22435428 -0.78191025 -0.58161974
0.20413107 -0.78018331 -0.59130745
0.1919688 -0.77850877 -0.59755508
0.177322 -0.78020376 -0.59986582
0.17207129 -0.77767641 -0.60465765
0.15111465 -0.77759082 -0.61034161
0.12639285 -0.77401596 -0.62042255
0.11678815 -0.77099927 -0.62603566
0.096953501 -0.76747518 -0.63370488
0.73838449 -0.16099682 -0.65488043
0.73598852 -0.19739578 -0.64757687
0.73051223 -0.2218064 -0.64587445
0.72660485 -0.24584662 -0.64156436
0.7211387 -0.27239692 -0.63699207
0.70789901 -0.30404695 -0.63752211
0.70118054 -0.33392668 -0.62995144
0.69532062 -0.36649929 -0.61822933
0.67579206 -0.39311437 -0.62351117
0.66425884 -0.4402805 -0.60408052
0.63880935 -0.49147468 -0.59192504
0.61100822 -0.5307781 -0.58731896
0.5663767 -0.57381945 -0.5915646
0.53033038 -0.61937368 -0.57890062
0.47646205 -0.66513602 -0.57495912
0.4238055 -0.69772201 -0.5775577
0.35082537 -0.72245313 -0.59580453
0.29916998 -0.74287976 -0.59885473
0.26509083 -0.75287316 -0.60241918
0.23632754 -0.7627037 -0.60202356
0.21538741 -0.76740655 -0.6039002
0.19766072 -0.77203753 -0.60405984
0.17985213 -0.77539699 -0.60532034
0.1702984 -0.7749979 -0.60858583
0.16388902 -0.77376358 -0.6119071
0.15120678 -0.76836385 -0.62189509
0.13714145 -0.77126741 -0.62156158
0.11710877 -0.7682719 -0.62932013
0.098244431 -0.7641143 -0.63755578
0.078022641 -0.76242498 -0.64235553
0.73121144 -0.14427519 -0.66671921
0.72327926 -0.17957701 -0.66679773
0.71505058 -0.21381978 -0.66557026
0.70350779 -0.23136268 -0.67197329
0.69505197 -0.25595099 -0.67185702
0.68727604 -0.2862601 -0.66761276
0.68049585 -0.3107817 -0.66358129
0.67000965 -0.33876937 -0.66054703
0.65773477 -0.37981829 -0.65047908
0.63562264 -0.42560332 -0.64408515
0.61435046 -0.46056864 -0.64066375
0.58194849 -0.51258266 -0.63134378
0.53187921 -0.56603018 -0.62985263
0.48939361 -0.61308009 -0.6201828
0.43085455 -0.65226367 -0.62363167
0.36247556 -0.69305327 -0.6231281
0.31067105 -0.71709027 -0.62391109
0.27068488 -0.73067931 -0.62676746
0.235832 -0.74275961 -0.62665096
0.21139537 -0.74965807 -0.6271561
0.19893305 -0.75538114 -0.62435965
0.17846779 -0.76061049 -0.62419623
0.16156065 -0.76247362 -0.62652385
0.15249795 -0.7668411 -0.62345738
0.14370495 -0.76346551 -0.62965808
0.13397227 -0.76397928 -0.63117912
0.12114171 -0.76362074 -0.63419875
0.099042975 -0.7569375 -0.64593816
0.082779385 -0.75795738 -0.64703027
0.066825739 -0.75799021 -0.64883369
0.71616272 -0.12830394 -0.68603867
0.7079561 -0.1715386 -0.68510778
0.69811152 -0.20581647 -0.68576955
0.68844842 -0.22402709 -0.68981927
0.6809065 -0.24491116 -0.69020639
0.67386634 -0.26900171 -0.68814406
0.66435377 -0.30047041 -0.68436219
0.65305656 -0.32548617 -0.68379521
0.64037397 -0.36120842 -0.67782715
0.61465311 -0.40372141 -0.67765078
0.58790478 -0.44962783 -0.67246025
0.55295387 -0.49586933 -0.66959363
0.50363083 -0.55259632 -0.66407326
0.43708056 -0.59882727 -0.6710935
0.37273702 -0.64404441 -0.66803736
0.3190348 -0.67587601 -0.66438575
0.27352008 -0.6995795 -0.66013278
0.23207773 -0.71705624 -0.65724446
0.20834574 -0.72789953 -0.65326436
0.19655646 -0.73438742 -0.64964657
0.17565203 -0.74046434 -0.64873641
0.16135666 -0.74195314 -0.65074539
0.14509159 -0.7452842 -0.65076869
0.13361686 -0.75228219 -0.64514962
0.12371633 -0.75295635 -0.6463366
0.11432525 -0.75318528 -0.64779755
0.099561671 -0.74827652 -0.65587326
0.081606095 -0.7511684 -0.65504693
0.070792813 -0.74910012 -0.65866334
0.044779701 -0.74609342 -0.66433379
0.70225948 -0.11874063 -0.70194892
0.69341399 -0.16434964 -0.7015456
0.68280574 -0.1994494 -0.70284868
0.67500607 -0.21822292 -0.70480179
0.66902786 -0.23929208 -0.70366258
0.66032388 -0.26447302 -0.70287011
0.65073039 -0.2908978 -0.70137609
0.63758612 -0.31667235 -0.70228382
0.62025092 -0.35047367 -0.7017528
0.58396777 -0.39878861 -0.70707092
0.54692098 -0.44674364 -0.7080237
0.49429627 -0.50039507 -0.71082767
0.45334714 -0.541304 -0.70814289
0.37246466 -0.59235183 -0.71441542
0.32522809 -0.63180667 -0.70359578
0.27476704 -0.66149389 -0.69780291
0.23128976 -0.68184171 -0.69397185
0.2074369 -0.69772407 -0.68567562
0.1833124 -0.71492438 -0.67474417
0.1687988 -0.71912127 -0.67407089
0.15115983 -0.72212186 -0.67504868
0.14388558 -0.72482607 -0.6737389
0.13007198 -0.73350667 -0.66712012
0.11576212 -0.73228367 -0.67108849
0.10435174 -0.73235805 -0.67287621
0.092493137 -0.73396678 -0.67285792
0.077328676 -0.7338575 -0.67488773
0.063002875 -0.73520191 -0.67491391
0.048722087 -0.7359247 -0.67530807
0.029397234 -0.73618503 -0.67614156
0.68504644 -0.11717592 -0.71901403
0.6773683 -0.15775565 -0.71852999
0.67139045 -0.18758813 -0.7169697
0.66614858 -0.2110104 -0.71534654