# vtk DataFile Version 2.0
Grain example
ASCII
DATASET UNSTRUCTURED_GRID
POINTS 900 float
5.9400768 -16.185003 0.72030128
5.4038518 -16.625866 0.6315279
4.8651373 -17.064232 0.51282053
4.2772702 -17.518768 0.37168304
3.6875219 -17.973768 0.26093568
3.1003381 -18.421132 0.16134316
2.4844341 -18.875828 0.07089712
1.8589851 -19.329134 -0.015517418
1.2573997 -19.754514 -0.10282614
0.63184958 -20.179925 -0.15919766
0.061614673 -20.561474 -0.1722178
-0.45110804 -20.87746 -0.16759775
-0.94297427 -21.164691 -0.12763247
-1.4415098 -21.448231 -0.096936715
-1.9622212 -21.717631 -0.061233009
-2.493131 -21.9894 -0.0087284643
-3.044235 -22.269925 0.053830099
-3.5998048 -22.535052 0.11587503
-4.159882 -22.74845 0.1615117
-4.7191538 -22.935941 0.18408893
-5.3125346 -23.083505 0.18567666
-5.8913825 -23.223054 0.18579838
-6.4859704 -23.365351 0.17007163
-7.1520902 -23.478041 0.15920101
-7.9339886 -23.579678 0.17169613
-8.8391927 -23.674661 0.20276307
-9.7406884 -23.763521 0.23898576
-10.613023 -23.825352 0.26967819
-11.500288 -23.885321 0.28795506
-12.373256 -23.912694 0.3532015
5.9350668 -16.240462 -0.041376439
5.3741699 -16.691259 -0.18420932
4.7982567 -17.139146 -0.33873543
4.2129996 -17.600675 -0.49460316
3.6158861 -18.055985 -0.61241036
3.0293618 -18.498905 -0.71390891
2.4294242 -18.944577 -0.8151674
1.8045791 -19.380174 -0.89932943
1.1863888 -19.784601 -1.0067148
0.59246437 -20.17561 -1.0784305
0.0634826 -20.523662 -1.0897051
-0.44647568 -20.84704 -1.0793019
-0.93038227 -21.130221 -1.055454
-1.4248515 -21.412046 -1.0226361
-1.9347795 -21.684765 -0.98685818
-2.4538529 -21.948442 -0.94674846
-3.001564 -22.220467 -0.89819315
-3.5506583 -22.476975 -0.85975407
-4.1397065 -22.720508 -0.82111835
-4.7394661 -22.925035 -0.78849713
-5.3591098 -23.099208 -0.78043478
-5.9490352 -23.238052 -0.771919
-6.5684946 -23.367111 -0.76312032
-7.1891089 -23.464796 -0.7635791
-7.8966658 -23.563413 -0.74266784
-8.7821745 -23.667882 -0.71387817
-9.6824186 -23.747763 -0.69180119
-10.550421 -23.810394 -0.6503231
-11.420883 -23.867115 -0.58446602
-12.301877 -23.897712 -0.50253443
5.8550189 -16.27592 -0.7746196
5.264543 -16.723463 -0.9010275
4.6668445 -17.173081 -1.0357084
4.0612645 -17.629216 -1.1767556
3.4639514 -18.069497 -1.289191
2.8709487 -18.509565 -1.3797501
2.2651206 -18.947058 -1.4713679
1.6268799 -19.362006 -1.569911
1.0181422 -19.754116 -1.6768657
0.48353654 -20.08923 -1.7425515
-0.035685196 -20.417696 -1.7741461
-0.52534482 -20.721037 -1.7710041
-1.0297515 -21.021774 -1.7381896
-1.5269136 -21.297088 -1.7117608
-2.0435243 -21.565949 -1.6851393
-2.5629877 -21.82558 -1.6526418
-3.0990497 -22.063572 -1.6293577
-3.6580099 -22.29223 -1.6149993
-4.2148593 -22.490134 -1.5992264
-4.7999302 -22.694282 -1.5630452
-5.4659292 -22.858206 -1.5373821
-6.0926092 -22.990706 -1.5118689
-6.7387798 -23.107285 -1.4898708
-7.3795814 -23.213041 -1.4694116
-8.0353231 -23.316088 -1.4503904
-8.89896 -23.407326 -1.4385012
-9.7728963 -23.473041 -1.3797688
-10.632152 -23.539059 -1.328339
-11.498744 -23.591637 -1.2586919
-12.383716 -23.625053 -1.1796408
5.7705702 -16.27326 -1.3470098
5.1475072 -16.721258 -1.4862346
4.5322401 -17.174239 -1.6220377
3.9096064 -17.627532 -1.7649014
3.3233008 -18.062078 -1.8863936
2.7205273 -18.499476 -1.9928279
2.1119382 -18.918558 -2.1084026
1.4671715 -19.331577 -2.2174285
0.91239612 -19.677252 -2.2950879
0.38558262 -20.004745 -2.3536491
-0.097818817 -20.297162 -2.377725
-0.59277223 -20.588614 -2.3881395
-1.1050607 -20.885559 -2.3907464
-1.619646 -21.166795 -2.3775919
-2.1378433 -21.416874 -2.3484531
-2.6481404 -21.637035 -2.3275687
-3.1823449 -21.836189 -2.3179808
-3.7220362 -22.020318 -2.3094002
-4.2862146 -22.211366 -2.280052
-4.8974307 -22.366794 -2.2672525
-5.5782818 -22.522553 -2.2495375
-6.2364596 -22.658064 -2.2228311
-6.9032232 -22.779229 -2.1983043
-7.5663506 -22.859083 -2.2060924
-8.2318662 -22.93391 -2.1901075
-8.9905995 -23.021507 -2.1417529
-9.863338 -23.125622 -2.0787094
-10.716281 -23.190922 -2.0149778
-11.597986 -23.237904 -1.9343885
-12.482157 -23.279659 -1.8402828
5.6870669 -16.269686 -1.9237325
5.0399294 -16.731944 -2.0784178
4.409129 -17.188226 -2.2252214
3.7840183 -17.637653 -2.3762937
3.1838005 -18.057758 -2.511473
2.5797256 -18.480639 -2.6287163
1.9603262 -18.884257 -2.7513723
1.3694864 -19.2504 -2.8307998
0.82150318 -19.588708 -2.896548
0.32135887 -19.883617 -2.946895
-0.1558625 -20.162642 -2.975706
-0.64572784 -20.439823 -2.9852906
-1.1390051 -20.700881 -2.9842608
-1.6432809 -20.955969 -2.9814852
-2.1719862 -21.183999 -2.9910402
-2.6969327 -21.381013 -2.9830581
-3.2399228 -21.550792 -2.9702802
-3.7764706 -21.715375 -2.9472013
-4.3757465 -21.856694 -2.9425291
-5.0272519 -21.992482 -2.9456637
-5.6781735 -22.124994 -2.9359736
-6.3538278 -22.241007 -2.9201865
-7.0468456 -22.338165 -2.9053648
-7.7143079 -22.427104 -2.8893953
-8.3728256 -22.50891 -2.8560068
-9.0992812 -22.605591 -2.8068249
-9.9012455 -22.703106 -2.7543994
-10.756846 -22.809583 -2.6684201
-11.648846 -22.882139 -2.5666662
-12.517666 -22.929408 -2.4418699
5.5804081 -16.272824 -2.518169
4.9176219 -16.743252 -2.6847207
4.2820799 -17.194452 -2.8497617
3.6504793 -17.642392 -3.0116198
3.0509934 -18.058934 -3.1493123
2.4518807 -18.467506 -3.2864848
1.8648441 -18.83021 -3.3833942
1.2875109 -19.169606 -3.4564895
0.75121547 -19.471343 -3.5041905
0.28733372 -19.721568 -3.5252573
-0.17006691 -19.962108 -3.5536071
-0.64210507 -20.202898 -3.5750337
-1.1406544 -20.451575 -3.5768298
-1.659851 -20.680553 -3.5901132
-2.2068689 -20.890981 -3.6017341
-2.7623803 -21.07488 -3.6017278
-3.3132664 -21.226992 -3.6042033
-3.881788 -21.362618 -3.5989998
-4.4961904 -21.486247 -3.6111851
-5.1627366 -21.602158 -3.6296149
-5.827743 -21.699057 -3.6239005
-6.4797164 -21.785279 -3.6129219
-7.1734567 -21.874296 -3.6028981
-7.8480898 -21.964046 -3.5683478
-8.503174 -22.037099 -3.5383936
-9.2093576 -22.125224 -3.4890102
-9.9971707 -22.215744 -3.4284756
-10.788543 -22.311206 -3.3307054
-11.647775 -22.42174 -3.2068842
-12.54669 -22.508192 -3.0542033
5.4917245 -16.280622 -3.158573
4.810796 -16.747355 -3.3213953
4.1539736 -17.195441 -3.4890102
3.5141042 -17.638856 -3.6521228
2.9154577 -18.05316 -3.793238
2.3496217 -18.408442 -3.9268662
1.8251137 -18.715556 -4.0120496
1.2781329 -19.015935 -4.0715684
0.77968307 -19.254781 -4.0923533
0.29995442 -19.479305 -4.1144068
-0.17362966 -19.701808 -4.1336566
-0.64496323 -19.926893 -4.1646033
-1.1572096 -20.163775 -4.1819065
-1.6874614 -20.373518 -4.1892856
-2.2420382 -20.568545 -4.1917321
-2.8182416 -20.744003 -4.1955991
-3.4180595 -20.895966 -4.2141287
-4.0133846 -20.982684 -4.2634608
-4.6485715 -21.067442 -4.289207
-5.3268938 -21.125459 -4.3213208
-6.0046791 -21.199209 -4.3228978
-6.6526703 -21.271254 -4.3217809
-7.3112655 -21.35286 -4.2986493
-7.9732071 -21.431718 -4.2691379
-8.6358026 -21.514337 -4.2268573
-9.329884 -21.596895 -4.1812126
-10.097181 -21.678095 -4.067982
-10.854703 -21.75095 -3.9570497
-11.670915 -21.848239 -3.824617
-12.527944 -21.957743 -3.6684353
5.3884259 -16.28417 -3.8122308
4.7009353 -16.748533 -3.9852321
4.0578721 -17.179262 -4.1504892
3.4336056 -17.584033 -4.3139748
2.8490566 -17.941168 -4.4427258
2.3279854 -18.240322 -4.5422821
1.8038225 -18.509209 -4.6393362
1.3039628 -18.757338 -4.6773703
0.80929465 -18.990966 -4.6936264
0.31609878 -19.217581 -4.7149838
-0.16089214 -19.437355 -4.7382619
-0.64985434 -19.639936 -4.7624698
-1.183485 -19.835469 -4.7813392
-1.725923 -20.025371 -4.7878282
-2.3069716 -20.194086 -4.8035913
-2.9050517 -20.336211 -4.8303611
-3.5248387 -20.451305 -4.8533006
-4.1636196 -20.543538 -4.8955064
-4.8364085 -20.58689 -4.9679328
-5.5151091 -20.62304 -5.0262206
-6.1826633 -20.687594 -5.0293949
-6.8272956 -20.761023 -5.0129323
-7.4812839 -20.834244 -4.9776608
-8.1034809 -20.897988 -4.9337647
-8.7489304 -20.971268 -4.8758592
-9.4124411 -21.040371 -4.7931057
-10.194099 -21.125238 -4.6753014
-10.943381 -21.195985 -4.5610352
-11.719279 -21.2859 -4.4299324
-12.533554 -21.391454 -4.2665684
5.325647 -16.221557 -4.4723965
4.6571043 -16.655535 -4.6430635
4.008405 -17.070155 -4.8189769
3.3811725 -17.46028 -5.0065274
2.8457131 -17.732844 -5.1139006
2.3131369 -17.995414 -5.2109779
1.7995362 -18.239 -5.2878121
1.3199125 -18.452244 -5.3070715
0.82180101 -18.676401 -5.3252008
0.32460587 -18.898517 -5.3364963
-0.1661343 -19.098058 -5.3511725
-0.66484686 -19.2849 -5.3768404
-1.206156 -19.465073 -5.4073518
-1.7925182 -19.621648 -5.4365003
-2.385819 -19.768955 -5.4399041
-2.9933034 -19.885907 -5.451017
-3.6491154 -19.974322 -5.4995371
-4.3189262 -20.053752 -5.5552332
-5.0274698 -20.109253 -5.6234884
-5.7074151 -20.136546 -5.6758064
-6.3590832 -20.166326 -5.6872101
-6.9953823 -20.225464 -5.653605
-7.6427282 -20.290237 -5.6160716
-8.2454606 -20.359124 -5.550681
-8.8515387 -20.425262 -5.4789103
-9.4924336 -20.476209 -5.3938443
-10.268113 -20.557752 -5.2827346
-11.021269 -20.643659 -5.1540843
-11.781633 -20.730275 -5.0119811
-12.555762 -20.824886 -4.826705
5.2894022 -16.108856 -5.161335
4.607838 -16.514212 -5.345863
3.9462238 -16.901532 -5.5365469
3.3594457 -17.19804 -5.7008662
2.8311559 -17.450549 -5.8158337
2.2977255 -17.71516 -5.9093556
1.8190723 -17.929296 -5.9549763
1.3397322 -18.133465 -5.9729581
0.83845967 -18.348618 -5.9517078
0.33685563 -18.555655 -5.9585402
-0.17300821 -18.746466 -5.9739386
-0.69779825 -18.911848 -6.0162586
-1.2535789 -19.063647 -6.0429665
-1.8233003 -19.205049 -6.0576773
-2.4434667 -19.321192 -6.0710611
-3.0982103 -19.408309 -6.0976659
-3.7844743 -19.479764 -6.1462338
-4.4798409 -19.524795 -6.1989565
-5.1979635 -19.563107 -6.2520389
-5.9046856 -19.602245 -6.2979585
-6.5519772 -19.633378 -6.2989549
-7.1762659 -19.662566 -6.2882328
-7.7896336 -19.718878 -6.2423019
-8.386167 -19.786405 -6.1745621
-8.9927326 -19.833985 -6.0949941
-9.5973256 -19.879935 -6.013835
-10.353476 -19.968185 -5.8926998
-11.097517 -20.050188 -5.764442
-11.869839 -20.107225 -5.6197158
-12.62675 -20.167489 -5.4011515
5.2648482 -15.904311 -5.9229722
4.5846114 -16.302511 -6.0904751
3.9335462 -16.644014 -6.2334866
[...]
POINT_DATA 900
VECTORS normals float
0.64801321 -0.7605699 0.040153636
0.63746395 -0.76990533 0.029757203
0.6251509 -0.78037842 0.013995311
0.61484543 -0.78863162 0.0050260208
0.60171973 -0.79869916 -0.0036078045
0.59246003 -0.80554553 -0.0093541837
0.58442805 -0.81135474 -0.012138343
0.57868 -0.81535475 -0.018057819
0.57083416 -0.82071406 -0.024016491
0.55411335 -0.83208541 -0.024336697
0.53087392 -0.84705262 -0.025975559
0.50984773 -0.85985336 -0.026598788
0.49240663 -0.87006701 -0.022783972
0.4738826 -0.8801481 -0.027831527
0.45215747 -0.89162728 -0.023546256
0.4235401 -0.90540429 -0.029272024
0.39509097 -0.91833681 -0.023677405
0.36233936 -0.93198622 -0.010577324
0.32525096 -0.94561871 -0.0041311783
0.29253688 -0.9562123 -0.0089565558
0.2649243 -0.96426594 -0.0025118788
0.23946389 -0.97090515 0.0004784765
0.20359081 -0.97905099 -0.0031540695
0.16257174 -0.9865127 -0.019055565
0.13244152 -0.99110644 -0.012933541
0.10857004 -0.99398944 -0.014055202
0.095981171 -0.99529133 -0.013519638
0.0777786 -0.99653341 -0.029523755
0.0623201 -0.99765581 -0.028268121
0.05061988 -0.99867511 -0.00925501
0.6394921 -0.76879767 1.1263382e-05
0.62700027 -0.77877964 -0.019311568
0.61457622 -0.7881458 -0.033500367
0.60908653 -0.79163795 -0.048197034
0.60185112 -0.79681291 -0.053520152
0.59404036 -0.80223331 -0.059479045
0.58454703 -0.80879374 -0.06447839
0.57755383 -0.81327575 -0.070810571
0.56122587 -0.8230969 -0.086816047
0.54756228 -0.83125992 -0.095825305
0.52525448 -0.84486441 -0.10154733
0.50031157 -0.85845296 -0.11290192
0.4852311 -0.86705401 -0.11299612
0.46400073 -0.87930348 -0.10737182
0.43443886 -0.89285561 -0.11862436
0.4164079 -0.9002225 -0.12729455
0.38685876 -0.91214352 -0.13540496
0.35704769 -0.92382429 -0.13807836
0.32482998 -0.93588151 -0.13642318
0.2962645 -0.94580453 -0.13297045
0.25815442 -0.95622625 -0.13779568
0.21452166 -0.9628782 -0.16384758
0.1865903 -0.96578602 -0.18011505
0.16025702 -0.96936309 -0.18615288
0.12424962 -0.975583 -0.18110726
0.10341534 -0.974324 -0.19999501
0.084869836 -0.96943471 -0.23020306
0.060205386 -0.96837595 -0.24212254
0.045553821 -0.97201906 -0.2304426
0.034428132 -0.97110343 -0.23616274
0.62853831 -0.77704163 -0.033851118
0.6177905 -0.78426017 -0.057191585
0.61093592 -0.7880425 -0.075804424
0.60377524 -0.79243063 -0.086655383
0.59728176 -0.79620893 -0.096466793
0.59204728 -0.79998546 -0.097484743
0.58325492 -0.80513786 -0.10754872
0.5675019 -0.81405318 -0.12352741
0.55019325 -0.82133452 -0.15065525
0.53668126 -0.82790387 -0.16293682
0.51214934 -0.84147818 -0.17209741
0.493222 -0.85058114 -0.18232878
0.46688239 -0.86395121 -0.18870384
0.44367002 -0.87408942 -0.19779939
0.40805755 -0.88748049 -0.21416679
0.39210141 -0.89297977 -0.22100593
0.36108095 -0.90194171 -0.2369002
0.32794743 -0.91153898 -0.24808701
0.2984048 -0.91573114 -0.26905587
0.26313631 -0.92686836 -0.26772062
0.23050015 -0.92964659 -0.28744894
0.18870397 -0.93138495 -0.31130835
0.15553302 -0.93315695 -0.32407959
0.12472965 -0.93470195 -0.33282845
0.10431614 -0.93291612 -0.34465294
0.0779268 -0.92813343 -0.36399966
0.066616603 -0.93105281 -0.35875185
0.045737662 -0.92412855 -0.37933427
0.024067449 -0.92360315 -0.38259376
0.0076882055 -0.91740517 -0.39788018
0.61783635 -0.78385058 -0.062100783
0.60891691 -0.78899251 -0.08192083
0.60384 -0.79059393 -0.10167838
0.60095527 -0.79150205 -0.11125319
0.59325557 -0.79592032 -0.12065933
0.58471856 -0.80102133 -0.12833175
0.57325674 -0.80553999 -0.14994009
0.55778878 -0.81248424 -0.16953185
0.53867868 -0.82239713 -0.18299795
0.52082524 -0.83010949 -0.19914645
0.49963511 -0.83845614 -0.21761446
0.47557461 -0.84783948 -0.23451441
0.45000094 -0.85827145 -0.24671699
0.42099153 -0.8678064 -0.26396625
0.37861436 -0.87826735 -0.29205757
0.35395712 -0.88394524 -0.30554079
0.32516861 -0.88643176 -0.32939963
0.29276653 -0.88793004 -0.35477882
0.25851155 -0.88994321 -0.37572977
0.2194114 -0.88853995 -0.40293349
0.18401136 -0.88859362 -0.42016805
0.15247124 -0.88273156 -0.44445192
0.12421186 -0.87733796 -0.46351863
0.10342815 -0.87337792 -0.47593448
0.082388094 -0.87551412 -0.47611681
0.065731473 -0.87433097 -0.48085833
0.049519435 -0.87146182 -0.48795708
0.029485593 -0.87326221 -0.4863576
0.0046979773 -0.87413897 -0.48565315
-0.018812276 -0.86962482 -0.49335462
0.60856989 -0.78907477 -0.083688039
0.59822353 -0.79459279 -0.10368659
0.59521258 -0.79477909 -0.11852505
0.5911979 -0.79587304 -0.13065661
0.58316075 -0.80023496 -0.13981255
0.57145335 -0.80578377 -0.15541424
0.55466114 -0.81142889 -0.18421231
0.53613773 -0.8177862 -0.20924164
0.51644543 -0.82623005 -0.22500671
0.49804389 -0.83079593 -0.24845602
0.47981401 -0.83595701 -0.26637265
0.4544594 -0.84223724 -0.29000532
0.41781893 -0.85281093 -0.31327443
0.37963716 -0.8617194 -0.33662337
0.33448019 -0.86686978 -0.36967525
0.30642061 -0.86664754 -0.39373653
0.27154242 -0.86287242 -0.42628147
0.24997597 -0.86573748 -0.43360192
0.20826993 -0.86279442 -0.46066194
0.17446397 -0.85328325 -0.491396
0.14114472 -0.84659995 -0.51317315
0.11802323 -0.84029442 -0.5291274
0.099604054 -0.83706561 -0.53795929
0.086470011 -0.83732003 -0.53983155
0.069940884 -0.83287897 -0.54901812
0.052819475 -0.83159542 -0.55286451
0.038143129 -0.828159 -0.55919386
0.019454785 -0.8336305 -0.55197979
-0.01628473 -0.8281081 -0.56033184
-0.035849044 -0.82619277 -0.56224581
0.59801098 -0.79472764 -0.10387898
0.58851896 -0.79943636 -0.12061071
0.58629003 -0.79887 -0.1344274
0.58203007 -0.80051237 -0.14290187
0.57143233 -0.80448235 -0.16209022
0.5540247 -0.81135187 -0.18645315
0.53435035 -0.81652193 -0.21854438
0.50734732 -0.82560033 -0.24694694
0.48598253 -0.82779791 -0.28030625
0.47226391 -0.82916291 -0.29909139
0.45476679 -0.83069222 -0.32115043
0.42674151 -0.83467227 -0.34815783
0.3795499 -0.84175929 -0.38390516
0.33745021 -0.84544047 -0.41395383
0.30071583 -0.84526422 -0.44169944
0.26861551 -0.84420842 -0.4638511
0.23094165 -0.84300463 -0.48580773
0.19253876 -0.83699152 -0.51222458
0.165806 -0.83211996 -0.52923033
0.13840192 -0.82302989 -0.55087812
0.10974497 -0.8174516 -0.56544578
0.098049562 -0.81558674 -0.57026708
0.083002129 -0.81160781 -0.57827624
0.0688972 -0.80728869 -0.58612127
0.054308941 -0.80163707 -0.59533901
0.038008801 -0.79792896 -0.60155191
0.017718814 -0.79073815 -0.61189805
-0.0030384992 -0.79011487 -0.61295127
-0.029176001 -0.78691633 -0.61636958
-0.045908984 -0.79009371 -0.6112645
0.58829815 -0.79924325 -0.12294522
0.58218981 -0.80149591 -0.13659913
0.57696196 -0.80304038 -0.14913432
0.57102775 -0.80494388 -0.16122242
0.55556404 -0.81010945 -0.18727325
0.52891641 -0.81890469 -0.22280607
0.50676011 -0.82247882 -0.25830753
0.47601858 -0.82961839 -0.29178697
0.46051708 -0.8306559 -0.31294537
0.43922838 -0.82770137 -0.34926906
0.41299132 -0.82715675 -0.38111663
0.37990079 -0.82775198 -0.41291894
0.33142008 -0.82930395 -0.44990631
0.29276562 -0.8267421 -0.48040169
0.26412255 -0.8264767 -0.49716751
0.23175919 -0.82222334 -0.51984273
0.1950189 -0.81996095 -0.53817438
0.16544016 -0.81434877 -0.55629636
0.13615092 -0.80708391 -0.57452458
0.11460817 -0.80155442 -0.58683513
0.093347861 -0.79656202 -0.59730656
0.082777763 -0.79499965 -0.60093544
0.067641824 -0.79060441 -0.6085797
0.051316312 -0.7865243 -0.61542356
0.037616976 -0.78123817 -0.62309862
0.019541143 -0.77314163 -0.63393231
-0.0032451612 -0.76375543 -0.64549756
-0.028458659 -0.75677351 -0.65305739
-0.043792112 -0.7564046 -0.65263645
-0.055555965 -0.75454507 -0.6538924
0.58019852 -0.80151357 -0.14472621
0.5743984 -0.80365438 -0.15558312
0.56767859 -0.80611673 -0.16708334
0.5566437 -0.80811467 -0.19260966
0.53347799 -0.81381352 -0.23045344
0.50133695 -0.82418849 -0.26339058
0.47672297 -0.82679781 -0.29856421
0.4464594 -0.8317042 -0.33006382
0.42403779 -0.83079786 -0.36050918
0.39797282 -0.83127367 -0.38807438
0.37557544 -0.8234059 -0.42537725
0.3415834 -0.82062308 -0.45814686
0.2980597 -0.81678855 -0.49398065
0.2608199 -0.81378993 -0.51934471
0.22620264 -0.81080392 -0.53984198
0.19843921 -0.80827401 -0.55435999
0.16593025 -0.80283267 -0.57264898
0.14029409 -0.79863572 -0.58523376
0.11593907 -0.79004592 -0.6019847
0.089925224 -0.78090355 -0.61814488
0.07377145 -0.77683996 -0.62536186
0.059622667 -0.77391676 -0.63047441
0.04755259 -0.76951436 -0.63685666
0.029822005 -0.76475481 -0.64363089
0.013596454 -0.7583981 -0.65164979
0.0011026736 -0.75267699 -0.65838905
-0.028257552 -0.74005039 -0.67195754
-0.045120869 -0.73346194 -0.6782313
-0.056344284 -0.73298498 -0.67790732
-0.068536483 -0.72386963 -0.68652422
0.57489923 -0.80074238 -0.16823351
0.56824292 -0.8031125 -0.17919348
0.55624691 -0.80707408 -0.19804241
0.53546064 -0.81032981 -0.23800738
0.5045648 -0.82090881 -0.26743801
0.47049419 -0.82680071 -0.30827877
0.43856677 -0.83063386 -0.34308393
0.40156206 -0.8349529 -0.37629984
0.38118806 -0.83062758 -0.40589837
0.34879168 -0.82161491 -0.45088058
0.32772986 -0.81668109 -0.47500014
0.30391087 -0.81563283 -0.49232232
0.26697555 -0.81019298 -0.52183464
0.231115 -0.80396619 -0.54792721
0.1995408 -0.79988556 -0.56600933
0.16727166 -0.79379028 -0.58473685
0.13042442 -0.78648815 -0.60367695
0.11258464 -0.77835448 -0.61764797
0.090514733 -0.76843739 -0.63349117
0.070560136 -0.76236404 -0.64329025
0.055180494 -0.75729472 -0.65073791
0.042213943 -0.75248458 -0.65725561
0.025196582 -0.74716824 -0.66415718
0.010680957 -0.74281115 -0.6694158
-0.0023936981 -0.74056639 -0.67197894
-0.02003666 -0.7333613 -0.67954377
-0.049079041 -0.72045232 -0.69176564
-0.063419359 -0.7148397 -0.69640663
-0.075758756 -0.71025846 -0.6998525
-0.083682152 -0.70062026 -0.7086103
0.56585782 -0.80070403 -0.1966672
0.55740497 -0.80351964 -0.20893992
0.53513211 -0.81023016 -0.23908306
0.50552379 -0.8171249 -0.27704257
0.46469078 -0.8251736 -0.32117132
0.42806512 -0.82655285 -0.36547316
0.39071033 -0.82802658 -0.40214105
0.35621981 -0.82820419 -0.43264913
0.33251729 -0.82293413 -0.46066437
0.30770172 -0.82146467 -0.48012023
0.28792064 -0.81226675 -0.50727156
0.26606821 -0.809297 -0.52368509
0.24021659 -0.80401527 -0.54392595
0.20405137 -0.80029296 -0.56382108
0.16483788 -0.79215883 -0.58763327
0.137773 -0.78229893 -0.60747591
0.10878955 -0.77245912 -0.62567703
0.091100651 -0.760307 -0.64314379
0.073766758 -0.75140422 -0.65570585
0.056243742 -0.74366883 -0.66617814
0.042665244 -0.73598096 -0.6756565
0.027649403 -0.73114826 -0.68165807
0.0088240321 -0.72796274 -0.6855599
-0.0062150815 -0.72362432 -0.69016607
-0.02357252 -0.71759901 -0.69605746
-0.043940142 -0.70966212 -0.70317063
-0.066173681 -0.70090274 -0.71018054
-0.084507368 -0.69582869 -0.71321872
-0.099603979 -0.68563864 -0.72109548
-0.11012833 -0.67159329 -0.7326897
0.55327051 -0.80148502 -0.22696588
0.53601539 -0.80660204 -0.24915988
0.50539838 -0.81462344 -0.28453669
0.46275665 -0.82145874 -0.33325939
0.41162905 -0.82623882 -0.3845659
0.38172506 -0.82452653 -0.41766252
0.35102972 -0.82472653 -0.44340082
0.32650384 -0.82061877 -0.46902033
0.30158087 -0.81816675 -0.4895428
0.28209303 -0.81563893 -0.50513035
0.25890745 -0.81247239 -0.52235577
0.23140835 -0.80822957 -0.54149343
0.20220372 -0.80229667 -0.56163485
0.16582529 -0.79307391 -0.58611922
0.13628872 -0.7838088 -0.60586232
0.1040788 -0.77388516 -0.62471542
0.08473784 -0.75833698 -0.64633159
0.067204388 -0.74506397 -0.66359871
0.049430322 -0.73283898 -0.6786042
0.037181309 -0.72602333 -0.68666416
0.027289053 -0.72241187 -0.69092431
0.014100495 -0.7171388 -0.69678771
-0.0040471159 -0.70964446 -0.70454834
-0.020009956 -0.70324245 -0.71066846
-0.045632648 -0.69684336 -0.71577021
-0.060762527 -0.68732421 -0.72380477
-0.088415538 -0.67340492 -0.73396765
-0.10749172 -0.66700499 -0.73725835
-0.12075683 -0.65404675 -0.7467534
-0.13122635 -0.64416475 -0.75354589
0.53979374 -0.80083203 -0.25940465
0.50785684 -0.80877065 -0.29659984
0.47533622 -0.81294044 -0.33642729
0.42059733 -0.82050066 -0.38713894
0.38018694 -0.82468665 -0.41874793
0.34715196 -0.82623012 -0.44365449
0.3201409 -0.82294791 -0.46932563
0.30019148 -0.81868888 -0.48952385
0.27734372 -0.81663727 -0.50614626
0.25697069 -0.81414982 -0.52069774
0.23056338 -0.81154727 -0.53687201
0.20541621 -0.8044208 -0.55741488
0.16670751 -0.79558796 -0.58245034
0.13110084 -0.78309313 -0.60792905
0.10379042 -0.77105079 -0.6282581
0.07639281 -0.76182255 -0.64326553
0.056885965 -0.74939057 -0.65968005
0.047322902 -0.73766856 -0.67350251
0.033694203 -0.72706811 -0.68573805
0.022215269 -0.72053123 -0.69306654
0.011715019 -0.71314921 -0.70091437
-0.0029921041 -0.70482309 -0.70937681
-0.02314483 -0.69538304 -0.71826649
-0.043580804 -0.68689418 -0.72544958
-0.064423888 -0.67645879 -0.73365732
-0.085971819 -0.66773867 -0.73941457
-0.11322933 -0.65788996 -0.7445535
-0.12938215 -0.64937677 -0.74937979
-0.14017139 -0.6358003 -0.75901908
-0.15660825 -0.62322666 -0.76619997
0.51185359 -0.80714653 -0.29414346
0.47782086 -0.81291741 -0.33294522
0.43468559 -0.81706458 -0.3787531
0.38434022 -0.82388916 -0.4165204
0.34723054 -0.82471006 -0.44641266
0.31429032 -0.82559541 -0.46862971
0.28974244 -0.82044242 -0.49287275
0.27165285 -0.81678048 -0.50899349
0.25834694 -0.81161392 -0.52396537
0.22435553 -0.80587961 -0.54792577
0.19555752 -0.79948277 -0.56796528
0.17253911 -0.79297784 -0.58430848
0.13697243 -0.78348503 -0.60612685
0.10423182 -0.77483277 -0.62351416
0.079187427 -0.76323455 -0.64125063
0.055264211 -0.75484145 -0.65357498
0.037787842 -0.74307464 -0.66814083
0.0244785 -0.72952072 -0.68352054
0.014595758 -0.72154744 -0.69221114
0.0031452553 -0.71319388 -0.70095977
-0.011646586 -0.70331321 -0.7107847
-0.029991955 -0.69104277 -0.72219137
-0.045382492 -0.68010599 -0.73170778
-0.062922326 -0.66949948 -0.74014271
-0.084479278 -0.66224061 -0.74451369
-0.10327304 -0.6554676 -0.74812894
-0.12615207 -0.65134072 -0.74822518
-0.1438383 -0.64806819 -0.74787576
-0.16110763 -0.62830595 -0.76110181
-0.17498481 -0.61531089 -0.76861747
0.48801592 -0.81051555 -0.32389043
0.44776028 -0.82066532 -0.35499178
0.40206283 -0.82544915 -0.39620598
0.35045774 -0.82712368 -0.43936977
0.30927474 -0.8251483 -0.4727361
0.28194855 -0.82166111 -0.49535647
0.26467569 -0.8181194 -0.51051681
0.24202501 -0.81092511 -0.53275169
0.22300822 -0.80338588 -0.55212179
0.19257044 -0.799834 -0.56849116
0.16133308 -0.78936888 -0.59234146
0.13084058 -0.7807665 -0.61097006
0.10098904 -0.77266705 -0.62672708
0.078531893 -0.76634337 -0.63761319
0.058631463 -0.75560535 -0.65239781
0.030096847 -0.74574112 -0.66555568
0.016683678 -0.73513191 -0.67771877
0.0059791172 -0.72354723 -0.69024898
-0.00797664 -0.71245739 -0.70167004
-0.020854812 -0.70257243 -0.71130658
-0.035386736 -0.69132035 -0.72168134
-0.053135076 -0.67889814 -0.7323073
-0.068030928 -0.66664216 -0.74226681
-0.081637972 -0.65597709 -0.75035278
-0.099879575 -0.64876344 -0.7544071
-0.11703355 -0.64324863 -0.75666
-0.13791813 -0.63870627 -0.75698936
-0.15790654 -0.63338737 -0.75755261
-0.17993081 -0.61714238 -0.76600273
-0.19718582 -0.60208846 -0.77369712
0.4627482 -0.81299238 -0.35342255
0.41202442 -0.82239478 -0.39230435
0.35594258 -0.82487921 -0.4391801
0.3104093 -0.82502915 -0.47220014
0.28261587 -0.81894125 -0.49946322
0.25338602 -0.81398462 -0.52270887
0.23342406 -0.80856987 -0.54011848
0.21186428 -0.80164427 -0.55899909
0.18544114 -0.79374713 -0.57929014
0.15909727 -0.7868789 -0.59624631
0.13608435 -0.77841326 -0.61282448
0.10784514 -0.7691504 -0.62990244
0.077601072 -0.76417534 -0.64032346
0.057347317 -0.75566043 -0.65244816
0.031129125 -0.74452052 -0.66687343
0.0091038312 -0.73629449 -0.67659999
-0.0023015132 -0.72523128 -0.68850148
-0.013389399 -0.7134608 -0.7005672
-0.032038552 -0.69993748 -0.71348515
-0.042931557 -0.68734292 -0.72506316
-0.059518911 -0.67674907 -0.73380392
-0.077021896 -0.6670607 -0.74101124
-0.092648823 -0.65753508 -0.7477057
-0.10197852 -0.64676366 -0.75584201
-0.11767176 -0.63647849 -0.76226537
-0.13202442 -0.62653943 -0.76812622
-0.15329317 -0.61538672 -0.77317552
-0.17733141 -0.60618007 -0.77530594
-0.20012641 -0.59616264 -0.7775214
-0.22460623 -0.58393022 -0.7801138
0.43805034 -0.80796108 -0.39409491
0.38056803 -0.81854648 -0.43029018
0.32345539 -0.81859085 -0.47464263
0.26920428 -0.81771514 -0.50879368
0.24651536 -0.81114419 -0.53035392
0.2222864 -0.80441382 -0.55091484
0.20305018 -0.79834943 -0.56692928
0.17790589 -0.79396517 -0.58135085
0.15554746 -0.78666395 -0.59746533
0.13671722 -0.77902941 -0.61189998
0.11719476 -0.76945262 -0.62785991
0.08807373 -0.76461805 -0.63843735
0.057029864 -0.75595587 -0.65213366
0.028306931 -0.74424498 -0.66730662
0.011459241 -0.73648465 -0.67635719
-0.0069189806 -0.72395657 -0.68981085
-0.02416392 -0.71209525 -0.70166691
-0.036322403 -0.69922537 -0.71397799
-0.050293354 -0.68933264 -0.72269709
-0.062118239 -0.67692116 -0.73342966
-0.080950913 -0.66562954 -0.74187887
-0.094734217 -0.65754705 -0.74743381
-0.10967688 -0.64869512 -0.75310399
-0.12139577 -0.63790433 -0.76048743
-0.13545107 -0.62607237 -0.76791041
-0.15029814 -0.61229682 -0.77621071
-0.17009365 -0.6015459 -0.78051949
-0.19851775 -0.58757881 -0.78443728
-0.22818314 -0.56977882 -0.78948372
-0.25248982 -0.55661524 -0.79147227
0.40503535 -0.80273077 -0.43768673
0.34156977 -0.81356638 -0.47057394
0.28867494 -0.80792875 -0.51372941
0.25224148 -0.80296601 -0.54001835
0.2126084 -0.79636248 -0.56621945
0.19594619 -0.79069222 -0.5800094
0.17973719 -0.78447576 -0.59354218
0.15817104 -0.78175451 -0.60319301
0.13118819 -0.77370007 -0.61982083
0.11751583 -0.76962794 -0.62758495
0.093880067 -0.76448083 -0.63777393
0.064026154 -0.75898403 -0.64795362
0.036803596 -0.74753261 -0.66320471
0.011379259 -0.73368477 -0.67939471
-0.0096939415 -0.72238288 -0.69142534
-0.027302396 -0.71134807 -0.70230941
-0.040773083 -0.69969834 -0.71327399
-0.055255088 -0.68806659 -0.72354077
-0.06889225 -0.67710357 -0.73265587
-0.079888647 -0.66893569 -0.73901478
-0.094072038 -0.65787691 -0.74722716
-0.11210514 -0.64655779 -0.75458298
-0.12689657 -0.6376416 -0.75980948
-0.14373976 -0.62720599 -0.7654747
-0.1591148 -0.61359497 -0.77342335
-0.17102887 -0.59989722 -0.78158329
-0.19433754 -0.58407781 -0.78809012
-0.21826289 -0.56173818 -0.79800471
-0.25650379 -0.54048495 -0.80130009
-0.29452667 -0.51615505 -0.8042624
0.36942322 -0.79463429 -0.48174976
0.30321536 -0.79920634 -0.51896981
0.25622895 -0.79248483 -0.55345688
0.21993902 -0.78902604 -0.57364165
0.19446227 -0.78361139 -0.59003187
0.17841744 -0.7782419 -0.60208535
0.15852777 -0.77324152 -0.61397597
0.13933437 -0.76891054 -0.62398919
0.11469125 -0.7654358 -0.63320925
0.099122617 -0.75657109 -0.64635509
0.076618245 -0.75296768 -0.65358191
0.046829578 -0.74649681 -0.66373903
0.014561725 -0.73484381 -0.67808003
-0.0080456204 -0.7227154 -0.69109892
-0.02836925 -0.7081277 -0.70551424
-0.043586908 -0.69781137 -0.71495417
-0.056468179 -0.68560553 -0.72577985
-0.074543704 -0.67778198 -0.73147442
-0.090615838 -0.66589382 -0.74052292
-0.10106972 -0.65971053 -0.74469251
-0.11675727 -0.64550404 -0.75477962
-0.12922561 -0.63597164 -0.76081588
-0.14553082 -0.62418527 -0.76760246
-0.1629875 -0.6135742 -0.77263302
-0.18057542 -0.59942157 -0.77979889
-0.20766468 -0.58401634 -0.78472944
-0.22957047 -0.56240168 -0.79435618
-0.25446581 -0.53702237 -0.80427242
-0.29121344 -0.50989838 -0.80944325
-0.32414645 -0.48620653 -0.81150003
0.33021127 -0.78880656 -0.51840594
0.26490169 -0.78797044 -0.55581443
0.22508916 -0.78414367 -0.57831962
0.19642697 -0.77882842 -0.59568678
0.17299433 -0.77691202 -0.60537647
0.1635491 -0.7717536 -0.61453077
0.14200474 -0.76630487 -0.62658718
0.12449842 -0.75950812 -0.63847283
0.10076697 -0.75345725 -0.64972932
0.075609114 -0.74588643 -0.66176785
0.05645759 -0.73935557 -0.67094402
0.027161501 -0.73340818 -0.67924568
-0.0038818496 -0.72226506 -0.69160546
-0.024667494 -0.70976514 -0.70400636
-0.044009285 -0.69568578 -0.71699685
-0.059837855 -0.6844307 -0.72661823
-0.073184164 -0.67590284 -0.7333481
-0.087342606 -0.66775196 -0.7392419
-0.10719348 -0.65807833 -0.74528013
-0.11840914 -0.65012044 -0.75054826
-0.13473171 -0.63868754 -0.75757877
-0.14596919 -0.62672372 -0.76544782
-0.15806389 -0.61412618 -0.77321721
-0.18098633 -0.60050727 -0.77886775