# vtk DataFile Version 2.0
Grain example
ASCII
DATASET UNSTRUCTURED_GRID
POINTS 31500 float
-8.0890227 -21.512913 -9.7837262
-7.0859743 -21.475364 -9.9246974
-5.908143 -21.413403 -10.049271
-4.5715289 -21.268448 -10.170365
-3.2614449 -21.116733 -10.256883
-1.9705192 -20.969589 -10.338195
-0.92023483 -20.805927 -10.419213
-0.10917014 -20.656908 -10.422039
0.59933377 -20.49644 -10.356296
1.2427722 -20.337544 -10.295135
1.8877468 -20.169207 -10.238103
2.5287713 -20.002704 -10.184632
3.1386717 -19.828826 -10.130855
3.7522188 -19.58663 -10.122047
4.4188184 -19.251422 -10.128257
5.1266321 -18.865296 -10.10659
5.8501847 -18.390484 -10.099829
6.543897 -17.913595 -10.099262
7.2675429 -17.376789 -10.113042
8.0091597 -16.775076 -10.138253
8.7637422 -16.099612 -10.148043
9.5062603 -15.400829 -10.156415
10.223339 -14.705137 -10.167955
10.935913 -14.02217 -10.180518
11.583141 -13.421393 -10.16767
12.210097 -12.848612 -10.155105
12.793311 -12.294822 -10.138119
13.336155 -11.728587 -10.100148
13.857768 -11.203401 -10.058638
14.378897 -10.668126 -10.016804
-8.0896819 -20.957483 -10.3936
-7.0726152 -20.877362 -10.576195
-5.8761253 -20.754926 -10.785155
-4.5425011 -20.599614 -10.977943
-3.2185229 -20.427391 -11.117932
-1.9863303 -20.298955 -11.190501
-1.0572089 -20.192091 -11.229753
-0.26576878 -20.068332 -11.237541
0.46930187 -19.933723 -11.197472
1.1636632 -19.769386 -11.130921
1.8116066 -19.61048 -11.068404
2.4616324 -19.445217 -11.013861
3.1178359 -19.273355 -10.965755
3.7676635 -19.079878 -10.942022
4.4154706 -18.781857 -10.951589
5.1211818 -18.411756 -10.951366
5.8618035 -17.954636 -10.94565
6.5746028 -17.451443 -10.955777
7.3161458 -16.891833 -10.976726
8.0949694 -16.259024 -10.975729
8.8685907 -15.552937 -10.982192
9.6341459 -14.826017 -10.997695
10.366025 -14.125068 -11.006421
11.06482 -13.451354 -11.009834
11.754253 -12.804165 -10.999944
12.378489 -12.231624 -10.980077
12.958436 -11.676906 -10.954434
13.499938 -11.116868 -10.912275
14.020254 -10.582882 -10.868143
14.528606 -10.02881 -10.822549
-8.0226715 -20.423233 -11.010819
-6.985559 -20.261441 -11.283556
-5.7653623 -20.058529 -11.549418
-4.5197083 -19.910545 -11.777942
-3.2969255 -19.808937 -11.905017
-2.1405988 -19.709919 -11.954155
-1.223159 -19.596841 -12.005669
-0.43315582 -19.47653 -12.035214
0.3037759 -19.34909 -12.003906
1.0250564 -19.213286 -11.966397
1.7190109 -19.050008 -11.901338
2.3840156 -18.881522 -11.854997
3.0592999 -18.69103 -11.827558
3.7267433 -18.494827 -11.811882
4.3820547 -18.283758 -11.797367
5.083711 -17.930649 -11.820425
5.8259861 -17.50815 -11.808639
6.5808383 -16.956398 -11.835831
7.3506137 -16.377323 -11.848359
8.1400136 -15.704291 -11.850932
8.9555468 -14.981351 -11.856712
9.7315222 -14.259775 -11.84235
10.4761 -13.549092 -11.843073
11.183179 -12.878564 -11.839731
11.895687 -12.200295 -11.837355
12.537511 -11.612153 -11.808828
13.112866 -11.068782 -11.769805
13.643153 -10.496294 -11.727452
14.134386 -9.9262407 -11.666198
14.623141 -9.3478951 -11.599122
-7.9201656 -19.852986 -11.654959
-6.8475582 -19.655204 -11.954615
-5.7250796 -19.475071 -12.228636
-4.5855824 -19.319807 -12.445639
-3.4388523 -19.204448 -12.628068
-2.2954099 -19.122288 -12.719799
-1.3839235 -19.009338 -12.773254
-0.58431849 -18.889727 -12.817695
0.13881519 -18.749742 -12.807906
0.85772007 -18.618288 -12.776755
1.5756023 -18.493283 -12.737439
2.2853659 -18.311452 -12.69412
2.9825145 -18.112648 -12.683069
3.6694803 -17.912651 -12.6735
4.3340828 -17.711132 -12.668619
5.0405776 -17.420271 -12.67
5.8052321 -17.012886 -12.688029
6.5642433 -16.479678 -12.695944
7.3674464 -15.837879 -12.71813
8.1859337 -15.139347 -12.729462
8.9940917 -14.447166 -12.726844
9.7971582 -13.703695 -12.701244
10.573322 -12.970445 -12.688512
11.284704 -12.286761 -12.683648
11.996272 -11.612527 -12.678367
12.640666 -10.975528 -12.661434
13.189987 -10.414666 -12.61166
13.725795 -9.7812402 -12.53273
14.225168 -9.1823709 -12.467423
14.713465 -8.6248008 -12.368495
-7.8343089 -19.295561 -12.253306
-6.8183089 -19.127966 -12.541648
-5.7368889 -18.954428 -12.819622
-4.6529341 -18.776041 -13.09054
-3.5290495 -18.625211 -13.301106
-2.4171465 -18.517992 -13.453936
-1.5431236 -18.420044 -13.538044
-0.73462064 -18.306578 -13.587817
-0.014830085 -18.16021 -13.587583
0.692554 -18.019344 -13.581342
1.4105856 -17.884086 -13.562361
2.1568076 -17.729106 -13.559915
2.8831318 -17.542667 -13.530953
3.5777347 -17.343566 -13.520272
4.2683229 -17.140125 -13.513575
4.9651339 -16.895609 -13.527495
5.7466983 -16.49259 -13.554582
6.5521519 -15.986014 -13.541126
7.3687115 -15.315952 -13.573168
8.1984586 -14.614874 -13.586262
9.0299731 -13.895234 -13.591566
9.8315923 -13.171006 -13.574542
10.650187 -12.408739 -13.549384
11.382795 -11.694874 -13.53269
12.063774 -11.00068 -13.519019
12.680625 -10.30524 -13.491249
13.256127 -9.6707422 -13.432798
13.805285 -9.0141878 -13.334587
14.262543 -8.4345024 -13.211965
14.724367 -7.8795048 -13.070556
-7.8067847 -18.784008 -12.776973
-6.8166599 -18.598639 -13.083637
-5.7621731 -18.417145 -13.376153
-4.6813923 -18.242245 -13.652549
-3.5902119 -18.063877 -13.92134
-2.4888121 -17.939062 -14.104995
-1.6622686 -17.825996 -14.217317
-0.89112356 -17.718242 -14.302496
-0.15971644 -17.585098 -14.315978
0.54588217 -17.435771 -14.324555
1.2714319 -17.273253 -14.343751
2.0126635 -17.114627 -14.354906
2.7595464 -16.957903 -14.358421
3.4856103 -16.764333 -14.345548
4.1946928 -16.546307 -14.33967
4.9083531 -16.335646 -14.316717
5.681517 -15.978401 -14.33837
6.4947984 -15.485773 -14.365979
7.3696438 -14.796957 -14.398413
8.2086259 -14.087195 -14.42275
9.0618095 -13.351594 -14.43035
9.8853566 -12.610132 -14.430745
10.701102 -11.809786 -14.415948
11.432979 -11.069021 -14.385586
12.083256 -10.322355 -14.323432
12.711894 -9.5974398 -14.272812
13.273205 -8.8979868 -14.182655
13.790939 -8.2643999 -14.026751
14.254987 -7.6733971 -13.866156
14.681549 -7.0886655 -13.690492
-7.8243574 -18.260193 -13.281299
-6.8157093 -18.071467 -13.594931
-5.7729359 -17.869798 -13.915285
-4.7056937 -17.696803 -14.19819
-3.6202968 -17.528435 -14.464843
-2.552933 -17.372332 -14.710677
-1.7367979 -17.248822 -14.846233
-1.0130723 -17.12517 -14.96702
-0.29768812 -16.994333 -15.030403
0.40594779 -16.843757 -15.04637
1.1412411 -16.676632 -15.073528
1.878393 -16.504548 -15.102116
2.6196797 -16.337332 -15.118944
3.3766138 -16.181151 -15.111743
4.12481 -15.97141 -15.088117
4.8581255 -15.715718 -15.09349
5.6384828 -15.393736 -15.116682
6.4428544 -14.905931 -15.170062
7.3301641 -14.249144 -15.189839
8.2127618 -13.538233 -15.216536
9.0733838 -12.773202 -15.24688
9.8995967 -12.01749 -15.270095
10.710964 -11.19423 -15.24579
11.413482 -10.399017 -15.18504
12.047913 -9.6389579 -15.081774
12.657799 -8.8891114 -14.969071
13.217251 -8.202492 -14.844082
13.71868 -7.5191161 -14.649347
14.183563 -6.892524 -14.437186
14.626057 -6.2559532 -14.166073
-7.8492115 -17.731112 -13.780954
-6.8213107 -17.540584 -14.103358
-5.7779889 -17.340084 -14.425065
-4.7313652 -17.148443 -14.740446
-3.6557072 -16.971966 -15.024746
-2.5764739 -16.813704 -15.281088
-1.7806603 -16.656461 -15.479986
-1.0913824 -16.533731 -15.612234
-0.42125076 -16.408983 -15.697017
0.2860485 -16.251237 -15.76998
1.0102357 -16.065774 -15.810325
1.7477687 -15.891297 -15.835692
2.4994022 -15.719587 -15.852024
3.2588504 -15.523131 -15.876009
4.0354633 -15.314654 -15.896111
4.808938 -15.027954 -15.908211
5.599277 -14.700702 -15.930007
6.3921028 -14.299355 -15.972763
7.2686338 -13.686578 -16.002372
8.1494786 -12.968004 -16.032273
9.0521069 -12.206256 -16.045937
9.8803927 -11.428105 -16.062556
10.638933 -10.58938 -16.01284
11.318927 -9.7730219 -15.908164
11.953352 -8.9877949 -15.793003
12.540492 -8.2551953 -15.632076
13.104759 -7.5439727 -15.436488
13.647862 -6.745943 -15.10679
14.135138 -6.0538509 -14.789172
14.592812 -5.3858492 -14.475864
-7.874416 -17.203106 -14.26526
-6.8309445 -16.999285 -14.616307
-5.7872397 -16.80564 -14.938378
-4.7453609 -16.608101 -15.25594
-3.6893418 -16.408118 -15.582959
-2.6166293 -16.23562 -15.873305
-1.8012228 -16.07035 -16.089637
-1.140567 -15.92308 -16.240663
-0.48793279 -15.788159 -16.351146
0.19112784 -15.644566 -16.45091
0.88630304 -15.472889 -16.517811
1.6277782 -15.285178 -16.550088
2.3900569 -15.076322 -16.582396
3.1524913 -14.860849 -16.622913
3.9339444 -14.594827 -16.684774
4.7267237 -14.327851 -16.725169
5.5264741 -14.015698 -16.7385
6.3253703 -13.664135 -16.764077
7.1836598 -13.122012 -16.802442
8.0750532 -12.40541 -16.831763
8.9810948 -11.615026 -16.843019
9.7871278 -10.838064 -16.78566
10.494446 -10.027162 -16.682036
11.162624 -9.2178535 -16.559366
11.783379 -8.4458508 -16.406348
12.380992 -7.6736747 -16.191413
12.97578 -6.8564091 -15.84449
13.566763 -6.001031 -15.448139
14.083905 -5.2467973 -15.101976
14.538884 -4.6098999 -14.749835
-7.8891104 -16.664922 -14.750059
-6.8480629 -16.446252 -15.124668
-5.8058347 -16.247638 -15.457575
-4.7572096 -16.046365 -15.79355
-3.7137407 -15.838322 -16.130689
-2.6542515 -15.648467 -16.444555
-1.8354026 -15.483584 -16.677219
-1.1736435 -15.339578 -16.823728
-0.52809242 -15.181533 -16.956835
0.1354956 -15.033901 -17.072817
0.80890881 -14.887616 -17.179191
1.5210476 -14.692426 -17.252622
2.2651511 -14.456512 -17.30575
3.0500212 -14.183886 -17.366438
3.8364165 -13.892899 -17.432309
4.6116199 -13.590977 -17.504161
5.4097647 -13.299213 -17.561308
6.223242 -12.960039 -17.581785
7.0925509 -12.512362 -17.604752
7.9879181 -11.801523 -17.629843
8.8297535 -11.023054 -17.568285
9.5895199 -10.263345 -17.4713
10.309251 -9.4885704 -17.325864
10.963489 -8.6968159 -17.164196
11.605617 -7.918802 -16.911557
12.223548 -7.084497 -16.556668
12.813611 -6.2651517 -16.211612
13.413132 -5.4074661 -15.809718
13.967421 -4.5701186 -15.399277
14.467277 -3.8575298 -15.002837
-7.8967765 -16.111528 -15.255132
-6.8457826 -15.879653 -15.643327
-5.8109784 -15.665789 -16.000763
-4.771532 -15.465462 -16.3407
-3.7260466 -15.27561 -16.66717
-2.6990311 -15.090143 -16.979562
-1.8847607 -14.917898 -17.229302
-1.2085347 -14.757331 -17.40897
-0.54972651 -14.595872 -17.542113
[...]
POINT_DATA 31500
VECTORS normals float
-0.048920597 -0.74403443 -0.66634791
-0.035689081 -0.75143989 -0.65883563
-0.01640708 -0.75821823 -0.65179439
0.005184637 -0.76529226 -0.64366208
0.031035364 -0.77208957 -0.63475546
0.079661379 -0.77731633 -0.62404598
0.1270437 -0.78100379 -0.61146789
0.17288716 -0.7784315 -0.60345209
0.21575278 -0.77963209 -0.5878984
0.2452718 -0.78180911 -0.57325061
0.26217623 -0.78567622 -0.56033607
0.29969132 -0.79404075 -0.52885196
0.34145663 -0.79641076 -0.49913652
0.39220264 -0.80038372 -0.45339055
0.43794479 -0.79233273 -0.42475077
0.49043637 -0.78259969 -0.38341869
0.53248669 -0.770504 -0.35040193
0.56200799 -0.76268159 -0.3200997
0.58163966 -0.75530681 -0.30200485
0.59778093 -0.74424375 -0.29792481
0.61848841 -0.72854605 -0.29443629
0.6353179 -0.7168064 -0.28733213
0.6475797 -0.70668278 -0.28502628
0.65576537 -0.69710501 -0.28985579
0.66116081 -0.69254374 -0.28852998
0.66534792 -0.68769998 -0.29048389
0.67736674 -0.67279595 -0.29752297
0.6874814 -0.65777832 -0.3077288
0.70310401 -0.63721315 -0.31560125
0.72030787 -0.61474289 -0.32132188
-0.057903256 -0.74088245 -0.66913407
-0.043739625 -0.74708224 -0.66329101
-0.027085164 -0.75242932 -0.65811588
-0.0021035897 -0.75875896 -0.65136811
0.023749584 -0.7662624 -0.64208869
0.069365753 -0.77425613 -0.62905949
0.10559613 -0.77839356 -0.6188319
0.1499508 -0.7789377 -0.60890953
0.19009779 -0.77740093 -0.59959205
0.21994478 -0.7800525 -0.58578357
0.24044979 -0.78152971 -0.57566937
0.26116017 -0.78567812 -0.56080768
0.30097549 -0.79027032 -0.53374768
0.3513025 -0.78983768 -0.5027355
0.39809755 -0.78568068 -0.47352319
0.45008985 -0.77703533 -0.44004002
0.50868434 -0.76403381 -0.39685334
0.54185428 -0.75278495 -0.37377636
0.56753668 -0.74189085 -0.35707154
0.59210157 -0.72671628 -0.34828032
0.61266655 -0.71376465 -0.33938139
0.62568656 -0.70286337 -0.33837763
0.63693213 -0.69342139 -0.33687422
0.6452316 -0.68687716 -0.33447863
0.65454751 -0.67966883 -0.33108584
0.668916 -0.66168509 -0.33870965
0.68597426 -0.63936049 -0.34735784
0.69898935 -0.61709735 -0.36139278
0.71307598 -0.59594729 -0.36928239
0.7240069 -0.5806197 -0.37241746
-0.065113661 -0.73755402 -0.67214156
-0.05052225 -0.74082452 -0.66979589
-0.035424178 -0.74691526 -0.66397494
-0.013339651 -0.75480815 -0.65580997
0.012101853 -0.76264242 -0.64670711
0.047609731 -0.76924348 -0.63717955
0.083502772 -0.77615107 -0.62499344
0.12495916 -0.77586825 -0.61839605
0.16902537 -0.77434845 -0.60976627
0.19406963 -0.77803541 -0.59749299
0.22013251 -0.78003846 -0.58573174
0.24267293 -0.78077849 -0.57575585
0.26952496 -0.78374389 -0.55955501
0.30434806 -0.78406369 -0.54094029
0.35798451 -0.77998707 -0.51329062
0.40436697 -0.77328079 -0.48838937
0.46979979 -0.7614904 -0.44656524
0.51767648 -0.74541694 -0.41995791
0.5548547 -0.72891987 -0.40101382
0.58129628 -0.71502412 -0.38837501
0.6035682 -0.69998403 -0.38174309
0.61661457 -0.69138382 -0.37653006
0.62653669 -0.6830376 -0.37538171
0.63899597 -0.67493443 -0.36898193
0.65942066 -0.65358329 -0.37147446
0.67960643 -0.62815533 -0.37888781
0.69775642 -0.60439879 -0.38449717
0.71010036 -0.58062421 -0.39828758
0.71931705 -0.56349989 -0.40626453
0.73089502 -0.53986055 -0.41754408
-0.078270485 -0.72658742 -0.68260124
-0.06094665 -0.73408357 -0.67631858
-0.045472882 -0.73887506 -0.67230638
-0.025422888 -0.746922 -0.66442547
-0.002678146 -0.75626452 -0.6542605
0.030455598 -0.76309806 -0.64556472
0.065435435 -0.7676916 -0.63746986
0.10245162 -0.76859202 -0.63148236
0.14287231 -0.77061705 -0.62107718
0.1696324 -0.77356837 -0.61058727
0.19843585 -0.77383196 -0.60150421
0.22033089 -0.774118 -0.59346071
0.24459133 -0.77659169 -0.58058628
0.27599366 -0.77881 -0.56327834
0.32598008 -0.77680585 -0.53880392
0.3702003 -0.76722461 -0.52375389
0.43657478 -0.75615738 -0.48747151
0.49348631 -0.73829435 -0.45977463
0.54475385 -0.71575193 -0.43696959
0.57599985 -0.7012859 -0.4200265
0.594324 -0.68992271 -0.41326219
0.61080787 -0.68126732 -0.40347066
0.62227141 -0.67341175 -0.39911766
0.64088314 -0.65458394 -0.40098462
0.66581847 -0.62359516 -0.4096521
0.69090985 -0.59126068 -0.41599806
0.71181978 -0.55659558 -0.4283853
0.72237942 -0.53607129 -0.4368015
0.7287158 -0.5117665 -0.45504762
0.73788909 -0.48348414 -0.47091696
-0.084399256 -0.71544383 -0.69355382
-0.072660928 -0.72139102 -0.68870559
-0.054533696 -0.72904918 -0.6822854
-0.035705371 -0.73654357 -0.67544704
-0.015771149 -0.74628286 -0.66544208
0.015795643 -0.75263604 -0.65824729
0.049407856 -0.75667916 -0.6519168
0.090414455 -0.75911794 -0.64464346
0.12305112 -0.76081276 -0.63719884
0.14382407 -0.76424972 -0.62867877
0.17496287 -0.76627893 -0.61822698
0.19965302 -0.76738997 -0.60930395
0.22377321 -0.76911584 -0.5986538
0.25270763 -0.77096516 -0.58459522
0.29548131 -0.76885446 -0.56705697
0.33784157 -0.76188302 -0.55262766
0.40151133 -0.74827451 -0.52808513
0.47913893 -0.72485485 -0.49498619
0.52733101 -0.70772164 -0.47016177
0.56284404 -0.694281 -0.44853146
0.5884074 -0.68161034 -0.43495297
0.60473441 -0.67353672 -0.42502303
0.62332002 -0.65379245 -0.42898437
0.64876245 -0.62163529 -0.43894971
0.67335552 -0.58893676 -0.44692935
0.70188215 -0.5413417 -0.46293695
0.71943157 -0.50836788 -0.47326559
0.72724743 -0.48328015 -0.48739252
0.73776887 -0.44874611 -0.50430548
0.74062286 -0.42146326 -0.52330345
-0.099572771 -0.70516649 -0.7020153
-0.08327497 -0.70980655 -0.69945689
-0.064855336 -0.71716007 -0.69388416
-0.04503408 -0.72331846 -0.68904451
-0.030213671 -0.73082142 -0.68189968
-6.8870408e-05 -0.74009071 -0.67250705
0.032875645 -0.74664849 -0.66440591
0.070141682 -0.75197908 -0.65544459
0.10248047 -0.75466636 -0.64805589
0.12984451 -0.75499772 -0.64274322
0.1505761 -0.7555454 -0.63755626
0.17794378 -0.75738679 -0.62825255
0.20442387 -0.76002132 -0.61691043
0.23232052 -0.76202456 -0.60443837
0.27582119 -0.75951737 -0.58911462
0.32961156 -0.75159489 -0.57136795
0.3891172 -0.73702228 -0.55261737
0.45288926 -0.71983344 -0.52605241
0.50223182 -0.70453842 -0.5013869
0.54462058 -0.68879004 -0.4784942
0.57724283 -0.67420917 -0.46068721
0.59909012 -0.65702882 -0.45760698
0.63085344 -0.61799249 -0.469158
0.66183214 -0.57558679 -0.48028956
0.6891297 -0.5271635 -0.497191
0.70853288 -0.48688449 -0.51080784
0.72124704 -0.45139715 -0.52539825
0.73263996 -0.41644565 -0.53834163
0.7399927 -0.38139414 -0.55403007
0.74185083 -0.34819081 -0.57307984
-0.10703811 -0.69026245 -0.71559807
-0.091363693 -0.69792375 -0.71032043
-0.078658137 -0.70243301 -0.7073901
-0.054467987 -0.71172738 -0.7003409
-0.041979041 -0.72033227 -0.69235769
-0.012856581 -0.72930812 -0.6840646
0.017230965 -0.73665888 -0.67604496
0.049443693 -0.7441535 -0.66617632
0.083204362 -0.74801056 -0.65845063
0.11416548 -0.74749434 -0.65438403
0.13560918 -0.74954587 -0.64791291
0.16401704 -0.7514597 -0.63906708
0.19014854 -0.74911089 -0.63456789
0.22289985 -0.74947899 -0.62337541
0.26506235 -0.74802476 -0.60844138
0.29670161 -0.74533115 -0.59703403
0.35713151 -0.73446901 -0.57707223
0.42288322 -0.72025075 -0.54991693
0.4859346 -0.69588185 -0.52878731
0.53539166 -0.67757132 -0.50423495
0.57245322 -0.65589051 -0.49204161
0.60077101 -0.6260351 -0.49714611
0.6396091 -0.57531377 -0.50981787
0.67192018 -0.51985558 -0.5275163
0.69506879 -0.47394296 -0.5406084
0.71647293 -0.430204 -0.54917307
0.72773242 -0.3774776 -0.57263966
0.73419906 -0.34570715 -0.58432722
0.73543353 -0.3126407 -0.60115997
0.74005221 -0.28001891 -0.61148355
-0.11938437 -0.68445331 -0.71921557
-0.099438686 -0.68786483 -0.71899508
-0.080339815 -0.69410378 -0.71537784
-0.063379909 -0.70238655 -0.70896835
-0.053855439 -0.70915312 -0.70299463
-0.024149012 -0.71681831 -0.69684169
0.0015167153 -0.72373609 -0.6900752
0.03030207 -0.73209146 -0.68053205
0.060287492 -0.73770058 -0.67243087
0.09734883 -0.73962383 -0.66594278
0.12438717 -0.74245614 -0.65824517
0.14696766 -0.74236168 -0.6536816
0.17772498 -0.74244346 -0.64590366
0.20250978 -0.73884578 -0.64272599
0.23991508 -0.73747991 -0.63131936
0.28808553 -0.73021711 -0.61950763
0.34427159 -0.72140795 -0.60087241
0.40417883 -0.71085039 -0.57561376
0.46557107 -0.69261508 -0.55093369
0.51412338 -0.66858255 -0.5372844
0.57070172 -0.63024119 -0.52639869
0.60904444 -0.58895546 -0.53122156
0.64699649 -0.52991821 -0.5482538
0.68000043 -0.47093158 -0.5619812
0.69959629 -0.41837214 -0.57924932
0.71513429 -0.36775217 -0.59442517
0.72890915 -0.31813737 -0.60620134
0.7332879 -0.27687654 -0.62098973
0.73636131 -0.2495222 -0.6288964
0.74045752 -0.21289726 -0.63749307
-0.12009604 -0.67884079 -0.72439776
-0.10766276 -0.68105427 -0.72427468
-0.092112007 -0.68924067 -0.71865337
-0.075115972 -0.69400284 -0.71604305
-0.061977564 -0.70038992 -0.71106452
-0.039392888 -0.70819584 -0.7049162
-0.0148153 -0.71458313 -0.69939364
0.007776487 -0.71757815 -0.69643458
0.037363886 -0.72368436 -0.68911892
0.076811681 -0.72774776 -0.68153002
0.10591661 -0.73036461 -0.67479568
0.13754562 -0.73075585 -0.66863824
0.1615482 -0.72960376 -0.66451526
0.18733415 -0.7278503 -0.65965132
0.22642535 -0.72213457 -0.6536461
0.27407813 -0.71506125 -0.64309299
0.32159132 -0.70995199 -0.62653587
0.3793252 -0.70205736 -0.60268388
0.44167324 -0.68169287 -0.58328345
0.50722939 -0.64230897 -0.57459336
0.56427425 -0.59613046 -0.57115939
0.61778779 -0.54029604 -0.57133041
0.65287251 -0.48091623 -0.5852154
0.68263489 -0.41946735 -0.59837843
0.69817818 -0.36981628 -0.61301154
0.71383063 -0.31406545 -0.62594626
0.72566338 -0.26778085 -0.63380287
0.7300581 -0.22446799 -0.64546828
0.7350359 -0.18899555 -0.65115506
0.74000422 -0.16080451 -0.65309697
-0.12730919 -0.6699815 -0.73138031
-0.11598019 -0.67567915 -0.7280153
-0.10029436 -0.68374331 -0.72279743
-0.082780266 -0.68921484 -0.71981271
-0.068441712 -0.69284473 -0.71783139
-0.051580294 -0.69911542 -0.71314592
-0.032095949 -0.70738671 -0.70609765
-0.0031731288 -0.71324627 -0.70090633
0.025879105 -0.71562519 -0.69800492
0.062614076 -0.71933337 -0.69183739
0.089459077 -0.71870572 -0.68953547
0.12028903 -0.71926394 -0.68424406
0.14402974 -0.71724941 -0.68176881
0.18203535 -0.71152744 -0.67866916
0.21591474 -0.7064354 -0.67403995
0.25673364 -0.70306029 -0.66316971
0.29921235 -0.69377301 -0.65509616
0.34905305 -0.68439207 -0.64013238
0.42161356 -0.65790888 -0.62401756
0.49721104 -0.61285968 -0.61415323
0.56400301 -0.54923352 -0.61663858
0.61585695 -0.48402381 -0.62164392
0.65103094 -0.42814953 -0.62677483
0.67245462 -0.37249422 -0.63957239
0.69285685 -0.3195402 -0.64640812
0.70990572 -0.26964973 -0.65063269
0.72009843 -0.22811259 -0.65530367
0.72972799 -0.18964806 -0.65690994
0.73204084 -0.15126896 -0.6642544
0.73826695 -0.12426436 -0.66296325
-0.13352747 -0.66890864 -0.73125348
-0.11925353 -0.67140633 -0.73143156
-0.10114024 -0.67647589 -0.72948682
-0.089026506 -0.68385524 -0.72416593
-0.076711065 -0.68720716 -0.72239998
-0.06388293 -0.69511752 -0.7160521
-0.041488581 -0.69934011 -0.71358399
-0.017121419 -0.70329141 -0.71069547
0.014932062 -0.70468264 -0.7093655
0.04877451 -0.70819268 -0.70433244
0.076616505 -0.70833241 -0.7017087
0.10473006 -0.70510659 -0.70132468
0.13610234 -0.7024926 -0.69855587
0.16752498 -0.69896931 -0.69525339
0.20267972 -0.69246284 -0.69239883
0.24333987 -0.6871092 -0.68459233
0.28716214 -0.67584949 -0.678797
0.34270823 -0.65982224 -0.66871943
0.41184429 -0.62704082 -0.6612141
0.48586043 -0.56849931 -0.66388868
0.55551652 -0.5040443 -0.66131743
0.6093699 -0.43637532 -0.66200068
0.63927575 -0.38854689 -0.66359463
0.67187037 -0.32400189 -0.66604278
0.69635634 -0.26764201 -0.66592462
0.70605296 -0.22527618 -0.67137162
0.71393563 -0.19314983 -0.67304461
0.72446665 -0.16383226 -0.66955736
0.73062938 -0.12116135 -0.67193797
0.73414547 -0.10013043 -0.67156855
-0.14097897 -0.66038604 -0.73757387
-0.12606063 -0.66854929 -0.73290556
-0.10947856 -0.66964174 -0.73457089
-0.099469508 -0.67384806 -0.73214385
-0.085085543 -0.67969354 -0.72854453
-0.071919303 -0.68884316 -0.72133399
-0.052448843 -0.69233556 -0.719667
-0.027114002 -0.69623905 -0.71729771
0.0062503766 -0.69687952 -0.71716098
0.0403504 -0.6945743 -0.71828851
0.060936054 -0.69190791 -0.71940965
0.091830044 -0.69225792 -0.71578364
0.12665107 -0.68867714 -0.71392107
0.16020295 -0.68740403 -0.70838599
0.19062597 -0.68497325 -0.70318802
0.23460183 -0.672984 -0.70146598
0.28085472 -0.65751066 -0.69914258
0.34835076 -0.61879797 -0.70408864
0.41074646 -0.58435009 -0.69987307
0.48507332 -0.5319753 -0.69405054
0.54945007 -0.45274552 -0.70222939
0.60355573 -0.37689102 -0.70261913
0.62899448 -0.34014237 -0.69904872
0.66552955 -0.28378517 -0.69031616
0.68648517 -0.23163235 -0.68926379
0.70009106 -0.1978279 -0.68610249
0.7110715 -0.17277232 -0.68156221
0.72017063 -0.13200271 -0.68112374
0.72747484 -0.10495694 -0.67805929
0.73205893 -0.084646438 -0.67596205
-0.15843893 -0.64481862 -0.74773395
-0.13639314 -0.65364648 -0.74440795
-0.11650402 -0.66090572 -0.74137065
-0.10692353 -0.66556374 -0.73864218
-0.096252076 -0.67336677 -0.73301619
-0.081561586 -0.67763945 -0.73085736
-0.061714478 -0.68311859 -0.72769521
-0.034905881 -0.68397813 -0.72866693
0.0013080241 -0.68523041 -0.72832518
0.032841464 -0.68319289 -0.72949909
0.053053934 -0.68054237 -0.73078544
0.081201112 -0.67989026 -0.72880424
0.11696425 -0.67949511 -0.72429674
0.14846128 -0.67784592 -0.72005844
0.18448747 -0.67118129 -0.71796939
0.23042297 -0.6533076 -0.72117573
0.29328848 -0.622781 -0.72534522
0.3552109 -0.58906892 -0.72582575
0.43023521 -0.52926333 -0.73128517
0.48157033 -0.48616097 -0.72920335
0.55376909 -0.40631194 -0.72680837
0.59424125 -0.34976985 -0.72425023
0.62714425 -0.29320703 -0.72160913
0.65612737 -0.24716505 -0.71302616
0.67693656 -0.20349564 -0.7073517
0.69252547 -0.17438523 -0.69999876
0.70401751 -0.1468097 -0.69484261
0.71861864 -0.11274674 -0.68620363
0.72529137 -0.088126066 -0.68277832
0.73110452 -0.077140181 -0.67789053
-0.17947532 -0.62376104 -0.76073042
-0.15309719 -0.63345032 -0.75848661
-0.13109013 -0.64841526 -0.74991535
-0.11673302 -0.65863957 -0.74334872
-0.10639856 -0.66468464 -0.73950908
-0.09111213 -0.66700433 -0.73946184
-0.069065757 -0.66907202 -0.73998146
-0.04468431 -0.67133525 -0.73980558
-0.01240995 -0.67056416 -0.74174774
0.020111957 -0.67444587 -0.73805032
0.040923463 -0.67176198 -0.7396358
0.069626569 -0.66795109 -0.74094095
0.10596011 -0.66525941 -0.73905506
0.14238324 -0.6590819 -0.73847008
0.18240175 -0.64770031 -0.73973908
0.23654939 -0.62238523 -0.74611059
0.30961432 -0.58479546 -0.7497688
0.36844187 -0.55003132 -0.74947724
0.42324821 -0.49989097 -0.75562555
0.50227596 -0.42551802 -0.75276376
0.53956734 -0.37832098 -0.75215711
0.58491007 -0.32146094 -0.74467649
0.61765584 -0.27383693 -0.73723443
0.64946705 -0.22917611 -0.72503163
0.67403291 -0.18978207 -0.71390644
0.68827974 -0.15424918 -0.70885696
0.70193291 -0.12963803 -0.70034575
0.7139813 -0.098666193 -0.69317796
0.72250387 -0.082091347 -0.6864759
0.72456653 -0.072853963 -0.68534345
-0.20975212 -0.59161182 -0.7784597
-0.17118239 -0.61406238 -0.77046997
-0.1469603 -0.63466228 -0.75868733
-0.12698569 -0.64556642 -0.75307279
-0.1139588 -0.65377107 -0.74806202
-0.095504633 -0.66079835 -0.74446249
-0.077444004 -0.65969786 -0.74753004
-0.051138442 -0.66060268 -0.74899197
-0.022751129 -0.66108144 -0.74996915
0.010509148 -0.66477808 -0.74696698
0.033555286 -0.66169612 -0.74902089
0.065567002 -0.65026655 -0.75687145
0.10456613 -0.64312521 -0.75858809
0.13939532 -0.63038243 -0.76366677
0.18266832 -0.61268699 -0.76892583
0.23782581 -0.58618827 -0.77448189
0.30968708 -0.55915518 -0.76905098
0.36541908 -0.51270515 -0.77691848
0.42555968 -0.46459699 -0.77656203
0.49912667 -0.39175305 -0.77291792
0.54083388 -0.34958121 -0.76504359
0.57796694 -0.30762168 -0.75585919
0.61079087 -0.26598663 -0.74577854
0.64396674 -0.21490169 -0.73425071
0.67028132 -0.17325757 -0.72159875
0.68602099 -0.14841402 -0.71228399
0.69868774 -0.10974439 -0.70695941
0.71223454 -0.088758009 -0.69630739
0.72485449 -0.076635643 -0.68462613
0.72658287 -0.065577509 -0.68394219
-0.24002442 -0.56428754 -0.78991635
-0.19715052 -0.58773756 -0.78466313
-0.1729406 -0.61121867 -0.77233625
-0.14733223 -0.62946656 -0.76293189
-0.12696754 -0.63992813 -0.75787283
-0.10497313 -0.64642141 -0.75572482
-0.086678883 -0.64988488 -0.75507378
-0.060207994 -0.65405381 -0.75404815
-0.0299669 -0.65157422 -0.75799276
0.001498335 -0.65155597 -0.75859908
0.029508818 -0.64497676 -0.76363224
0.068344461 -0.63133862 -0.77248985
0.10730728 -0.62076567 -0.77661775
0.15001309 -0.60690335 -0.78048984
0.19344748 -0.58582785 -0.78700941
0.2455164 -0.55743923 -0.79308461
0.30988784 -0.52436904 -0.79309938
0.37102394 -0.48159318 -0.79398315
0.43648115 -0.4277694 -0.79151598
0.50089167 -0.36855929 -0.78311659
0.54876152 -0.3190665 -0.77269487
0.57009591 -0.29826731 -0.76552418
0.61152175 -0.24080256 -0.75369442
0.63903703 -0.20966968 -0.7400475
0.66435266 -0.16975046 -0.72788758
0.68025487 -0.13253617 -0.72089353
0.69579503 -0.10445911 -0.71060367
0.70642814 -0.085623992 -0.70258652
0.71578169 -0.073984883 -0.69439385
0.7254055 -0.061147702 -0.68560033
-0.27550368 -0.53609101 -0.79793744
-0.22847718 -0.56647836 -0.79177045
-0.20304155 -0.58511713 -0.78511915
-0.16575699 -0.60920314 -0.77549736
-0.14646803 -0.62055834 -0.77035996
-0.11810995 -0.6324966 -0.76550512
-0.093893738 -0.6407989 -0.76194537
-0.072112766 -0.64229639 -0.76305642
-0.032174511 -0.64055186 -0.76724058
0.0032395455 -0.63613751 -0.7715689
0.042360586 -0.62701095 -0.77785786
0.081353668 -0.61712815 -0.78264579
0.11551505 -0.60382403 -0.78870325
0.16034352 -0.58834682 -0.79255156
0.20061297 -0.5644621 -0.80071029
0.25035569 -0.53619438 -0.80611266
0.31328394 -0.48553173 -0.81615691
0.37383989 -0.44712555 -0.81260229
0.44294205 -0.40241626 -0.80116384
0.49576964 -0.34732331 -0.79597675
0.54418506 -0.29692285 -0.78466518
0.56962173 -0.2651473 -0.77796401
0.59776562 -0.24409183 -0.76360686
0.62841963 -0.20026601 -0.75165304
0.65945233 -0.16311628 -0.73383629
0.67520961 -0.1285771 -0.7263332
0.68906006 -0.098379779 -0.71799558
0.69982898 -0.083960757 -0.70935886
0.71270522 -0.06948236 -0.69801394
0.72220793 -0.054367931 -0.68953596
-0.29461432 -0.51829011 -0.80285601
-0.25765628 -0.54244833 -0.79960181
-0.22962334 -0.56590144 -0.79185143
-0.19322345 -0.58792978 -0.78549556
-0.16161678 -0.60891615 -0.77659586
-0.13622225 -0.62168931 -0.77132736
-0.1066549 -0.62600329 -0.77249247
-0.074165133 -0.62742795 -0.77513463
-0.037698681 -0.62558337 -0.77924596
0.007455058 -0.61577034 -0.78789042
0.045679036 -0.60609758 -0.79407755
0.082052725 -0.59413764 -0.80016736
0.11928429 -0.58241892 -0.80408921
0.15286445 -0.56681881 -0.80953622
0.19698025 -0.54519413 -0.81483872
0.25236294 -0.50633778 -0.82458171
0.31255981 -0.47109926 -0.82484656
0.37256351 -0.42954955 -0.82260781
0.43927308 -0.37190922 -0.81775466
0.49403691 -0.32407141 -0.80678699
0.54016913 -0.2772153 -0.79458731
0.56782999 -0.24268751 -0.78655698
0.58466505 -0.23070553 -0.77778
0.61552616 -0.19613219 -0.7633215
0.65213615 -0.15367245 -0.74236327
0.67316835 -0.11875394 -0.72989169
0.68313891 -0.093631705 -0.72426123
0.69225537 -0.078688616 -0.71734971
0.70624134 -0.068568362 -0.70464285
0.71806714 -0.043545799 -0.69461021
-0.3191695 -0.50695237 -0.80070602
-0.28258471 -0.52966668 -0.79974939
-0.25100405 -0.54905079 -0.79720775
-0.21567066 -0.57493788 -0.7892608
-0.18338876 -0.59780439 -0.78038354
-0.14825266 -0.60809411 -0.77989916
-0.11556312 -0.61119818 -0.7829955
-0.076393488 -0.60439223 -0.79301581
-0.039472129 -0.59948116 -0.79941497
0.0033428479 -0.59247278 -0.80558354
0.043122563 -0.58194146 -0.81208656
0.082281522 -0.56846184 -0.81858468
0.11273931 -0.55516381 -0.82406492
0.15493562 -0.5395981 -0.82754386
0.19863797 -0.5138496 -0.83456668
0.24812397 -0.49460991 -0.8329439
0.31562805 -0.43249242 -0.84458821
0.37737802 -0.3969372 -0.83667598
0.44386311 -0.33736884 -0.83016131
0.49492334 -0.29643054 -0.81681076
0.53158407 -0.25253771 -0.80848196
0.55892817 -0.23154243 -0.79623326
0.58257119 -0.21320655 -0.7843174
0.60401628 -0.18702702 -0.77471622
0.63817625 -0.15167328 -0.75480215
0.66495152 -0.1210826 -0.73700644
0.68198091 -0.092047989 -0.72555441